ITEM: TIMESTEP
110
ITEM: NUMBER OF ATOMS
64
ITEM: BOX BOUNDS xy xz yz pp pp pp
-2.1577784230499999e-01 1.1187578062354000e+01 -2.1577784230499999e-01
-5.8671844649000000e-02 1.1223192087773000e+01 5.3801181254999997e-02
0.0000000000000000e+00 1.0992593606461000e+01 -5.8671844649000000e-02
ITEM: ATOMS id type x y z fx fy fz
1 1 1.49916 3.86561 1.28454 -0.00404619 -0.050405 -0.0623485
2 1 1.66085 9.85327 7.0736 -1.96437 0.149093 -0.621305
3 1 6.81302 4.16873 1.19459 1.0232 -0.855078 0.495568
4 1 6.81637 4.02802 6.74729 1.0749 -1.08008 0.687193
5 1 6.6967 9.76433 1.06499 0.906117 0.161237 0.846969
6 1 6.78996 9.74982 6.75594 -0.0940775 -0.927445 -0.193183
7 1 10.8515 11.0339 2.68141 0.350588 -0.0114374 -1.43998
8 1 -0.219469 11.0663 8.05699 1.09588 0.511637 -0.701978
9 1 0.263836 5.09085 2.88307 -0.787807 -0.0528994 -1.39152
10 1 0.206083 5.08355 8.43149 0.591627 1.15495 -1.06596
11 1 5.58515 11.3813 2.40358 -0.603163 -1.06164 -0.115964
12 1 5.41514 10.9707 8.16252 -0.177662 0.89266 -0.524247
13 1 5.34543 5.3306 2.56118 0.223413 1.00643 0.815545
14 1 1.544 3.8773 6.87482 -1.58085 -0.106673 -0.864205
15 1 1.28477 9.52198 1.24364 -1.44181 1.06451 0.410231
16 1 5.40121 5.37007 8.0058 0.916517 0.0570606 1.14325
17 1 1.30009 6.70844 4.02977 -0.0468058 0.285166 0.503352
18 1 1.35678 6.77211 9.61733 -0.135097 -0.223569 -0.368645
19 1 7.04151 1.26224 3.96781 0.0204057 0.724167 -0.356172
20 1 6.93554 1.18438 9.47897 1.17982 0.537429 -0.309936
21 1 6.7349 6.78713 4.00279 -0.00385073 -0.818513 -0.522432
22 1 6.79969 6.80109 9.48121 -0.233285 0.0963193 -0.759546
23 1 -0.0304529 2.5553 10.8789 1.30087 0.523687 -0.295146
24 1 0.0515328 2.49336 5.36835 -0.0951138 0.750318 0.39181
25 1 -0.0979512 8.24328 10.8179 -0.189592 -0.148082 -0.295768
26 1 10.6504 7.97872 4.88909 0.227585 0.123468 0.618284
27 1 5.62399 2.60378 10.8943 -0.251293 -0.0317659 -1.17177
28 1 5.63945 2.5876 5.35012 -0.791638 -0.142973 -0.0714698
29 1 1.4041 1.12157 3.99936 -0.0549726 -0.132356 -0.144202
30 1 1.43848 1.11281 9.49129 -0.262846 0.0645037 0.349507
31 1 5.43764 8.26145 10.8136 -0.759738 -0.416629 -0.0311719
32 1 5.43923 8.27661 5.37288 -0.767737 -0.419129 0.0631514
33 1 4.09637 3.91541 4.02272 0.486961 -0.0653027 0.0539794
34 1 4.03382 9.6834 9.51315 -0.0133758 -1.32497 -0.196699
35 1 9.7574 3.88599 3.96001 0.13851 0.231333 0.982163
36 1 9.76678 4.0339 9.56517 -1.13 -0.727153 0.378611
37 1 9.41859 9.60927 3.88094 -0.314819 0.530648 -0.000830625
38 1 9.76386 9.64093 9.35174 -1.31355 -0.996709 0.494977
39 1 2.6525 10.8745 10.9125 -0.43493 1.00252 -0.308013
40 1 2.51279 11.0076 5.38277 1.00627 -0.0202367 -0.169456
41 1 2.83865 5.36041 10.865 -0.0934611 -0.460961 -0.0147637
42 1 2.68674 5.32339 5.41132 0.47462 0.193579 0.0861584
43 1 8.28473 11.0305 10.6841 -0.515298 0.0769075 0.431348
44 1 8.11165 11.112 5.34872 0.201033 -1.10269 -0.629457
45 1 8.1698 5.4556 10.753 0.538722 -0.433944 -0.20985
46 1 4.18361 3.86589 9.3636 -0.0181521 0.833413 1.22038
47 1 3.48667 9.16229 4.3187 0.700689 0.820364 -0.303863
48 1 8.12828 5.1435 5.25693 0.598514 2.21696 -0.285117
49 1 4.08959 6.87574 1.28335 -0.404427 -0.15613 -0.300576
50 1 4.13101 6.78925 6.74211 -0.921138 0.860334 0.0761308
51 1 9.67799 1.30897 1.1614 0.316887 -1.31572 0.861074
52 1 9.66037 1.20928 6.65722 1.27206 0.120098 0.767444
53 1 9.09442 7.31049 0.794108 1.09779 -1.07605 0.689491
54 1 9.21083 7.00378 6.35676 0.0290342 -0.875499 0.638607
55 1 2.91578 2.39868 2.63668 -0.861672 0.510448 -0.272775
56 1 2.86953 2.45733 8.05917 0.126142 -0.400157 0.691148
57 1 2.43571 8.06555 2.57936 1.00375 -0.423749 0.401163
58 1 2.66492 8.2354 8.21664 1.10825 -1.52882 0.204733
59 1 8.37009 2.71808 2.53996 -0.878686 -0.196515 -0.380874
60 1 8.44463 2.59541 8.11713 -1.25666 0.731602 -0.0960118
61 1 4.22391 1.18828 1.07227 -0.131168 0.341434 1.04509
62 1 4.257 1.09447 6.69913 0.0517229 0.0508575 -0.366499
63 1 7.95825 8.28778 2.51298 -0.227485 0.778112 0.261149
64 1 8.11517 8.26422 8.09389 0.698705 0.18203 -0.766768
