ITEM: TIMESTEP
190
ITEM: NUMBER OF ATOMS
64
ITEM: BOX BOUNDS xy xz yz pp pp pp
-2.1577784230499999e-01 1.1187578062354000e+01 -2.1577784230499999e-01
-5.8671844649000000e-02 1.1223192087773000e+01 5.3801181254999997e-02
0.0000000000000000e+00 1.0992593606461000e+01 -5.8671844649000000e-02
ITEM: ATOMS id type x y z fx fy fz
1 1 1.57163 3.87513 1.27952 -0.50358 -0.845582 -0.270149
2 1 2.37598 8.78244 6.13387 2.38951 0.795923 3.00531
3 1 7.3953 4.79318 2.07363 0.816071 -2.47932 -2.05251
4 1 6.84101 4.03389 6.77898 -0.966798 -0.987757 0.507343
5 1 6.66798 9.72465 1.07246 0.462612 -0.815252 0.20286
6 1 6.02405 9.13918 6.77356 1.46681 1.06414 5.3816
7 1 10.6975 11.225 2.96978 0.474998 -0.0413607 -0.670735
8 1 10.9874 -0.110073 8.13045 0.826962 -0.333565 0.325584
9 1 0.0254534 4.80643 2.66085 0.625413 0.862627 0.775066
10 1 -0.0432171 5.3421 8.20151 1.34446 -0.409945 0.0459189
11 1 5.80437 11.2382 2.40913 -1.69029 1.18527 -0.216111
12 1 5.47536 -0.186722 8.03201 3.22241 3.33008 -1.52781
13 1 5.4582 5.38786 2.63752 -2.38585 -0.349083 -0.989906
14 1 1.42355 4.0085 6.79448 -0.305292 0.894959 -0.262961
15 1 1.67946 9.49766 1.01841 -1.30623 -0.428354 -0.242791
16 1 5.42919 5.29306 8.19534 0.490685 -0.573014 -0.156236
17 1 1.17511 6.59578 3.62865 -0.970682 -0.125845 0.145138
18 1 1.3535 6.63128 9.6148 -0.407813 0.434615 -0.865146
19 1 6.98521 1.25006 4.1108 -0.699314 0.242284 -0.540303
20 1 7.02914 1.24152 9.52827 0.28241 -1.27036 -1.31068
21 1 7.06653 6.22094 3.45948 0.804853 2.91858 1.62289
22 1 6.87089 6.69277 9.49987 0.0954793 -0.231787 -0.283187
23 1 11.1152 2.31039 10.8384 0.604404 0.398692 0.0174919
24 1 0.128398 2.39912 5.59167 -0.570373 0.32542 0.0290664
25 1 -0.00562584 8.2851 10.7576 1.41084 0.747961 -1.16916
26 1 10.4484 7.75053 4.91699 0.480582 0.448742 0.149009
27 1 5.49121 2.36735 10.601 -0.179644 1.51438 1.08277
28 1 5.46918 2.71845 5.24477 1.25457 -0.655241 0.950632
29 1 1.46598 1.18616 4.1128 -1.09889 -0.155585 -0.712725
30 1 1.56548 1.13772 9.43095 -2.5009 0.1955 -0.925695
31 1 5.49921 8.1975 10.7849 0.0246568 -1.17055 0.410387
32 1 4.38381 8.22254 5.66941 -2.75529 1.81122 1.63916
33 1 4.16217 4.01628 3.94811 -0.436719 0.217912 0.161903
34 1 4.26067 9.60288 9.25634 -0.160927 -1.19149 1.70806
35 1 9.76452 3.71974 4.31154 0.464077 0.553067 0.0776769
36 1 9.8401 3.74893 9.36025 0.16007 0.369211 0.287218
37 1 9.41 9.58352 3.88368 -0.399206 -0.181594 0.935155
38 1 9.56235 9.60296 9.47955 0.274698 -0.66997 -0.89151
39 1 2.65091 10.9961 10.6188 1.59956 -0.581566 0.848099
40 1 2.74191 10.7265 5.59182 3.151 -0.486536 2.86636
41 1 2.84673 5.29088 10.8691 -0.38307 0.248358 0.215394
42 1 2.55769 5.3113 4.99698 -0.512223 -1.07015 1.39442
43 1 8.15019 10.9274 10.7965 0.196638 1.03923 0.385815
44 1 8.00908 10.9931 5.33855 1.87964 0.621394 -0.961255
45 1 8.28302 5.41502 10.8706 0.0498066 0.569391 0.383564
46 1 4.1026 3.87954 9.51013 0.77623 0.328883 -0.403979
47 1 3.60514 9.56371 4.35371 -0.0102228 -1.77569 0.961637
48 1 8.12228 5.27685 5.39853 0.940187 0.344131 -0.663497
49 1 4.18466 6.75762 1.20492 0.269434 0.0838335 -0.585803
50 1 4.26241 9.73725 7.24127 -8.45946 -1.98706 -7.50936
51 1 9.61228 1.14158 1.34564 1.0522 0.0867694 -0.772429
52 1 9.58436 1.16788 6.76074 0.633395 -0.606183 -0.0624185
53 1 9.53107 7.24444 0.839996 -0.949709 -0.48376 0.128865
54 1 8.75916 7.19784 6.54121 1.79348 -1.09116 -2.06505
55 1 2.90299 2.51288 2.75665 -0.0150145 -0.599397 -1.41452
56 1 2.82002 2.61171 8.06291 -0.509146 -0.00549692 0.108101
57 1 2.7584 8.03834 2.43265 -0.754891 0.394947 0.827794
58 1 3.07132 8.02141 8.25509 0.341042 1.0688 -4.42502
59 1 8.37642 2.55712 2.7689 -0.682663 1.16956 -0.0960481
60 1 8.26294 2.54122 8.03392 -0.185595 0.744597 0.524269
61 1 4.24546 1.20658 1.09447 -0.339757 -0.786583 1.24075
62 1 4.16872 1.34029 6.60966 0.0854399 -3.37711 1.23951
63 1 7.98315 8.30575 2.40237 0.46864 -0.358335 0.55572
64 1 7.94152 8.2726 8.10508 -1.07371 1.11419 0.906463
