ITEM: TIMESTEP
20
ITEM: NUMBER OF ATOMS
64
ITEM: BOX BOUNDS xy xz yz pp pp pp
-2.1577784230499999e-01 1.1187578062354000e+01 -2.1577784230499999e-01
-5.8671844649000000e-02 1.1223192087773000e+01 5.3801181254999997e-02
0.0000000000000000e+00 1.0992593606461000e+01 -5.8671844649000000e-02
ITEM: ATOMS id type x y z fx fy fz
1 1 1.39441 4.02308 1.24405 -0.235802 0.175479 -0.289686
2 1 1.20802 9.81788 6.83237 -0.157746 -1.2102 -0.536812
3 1 6.74577 4.05241 1.19505 0.273232 0.298681 0.0635701
4 1 6.87339 3.98575 6.74761 0.37164 -0.0193564 -0.168292
5 1 6.79369 9.59067 1.25787 0.0239381 0.279373 -0.015565
6 1 6.87045 9.60161 6.73752 -0.44885 0.370873 0.316549
7 1 10.8268 10.953 2.69409 0.33077 0.251183 -0.287294
8 1 10.7832 11.1561 8.14214 0.553339 -0.855231 -0.304044
9 1 11.0933 5.44673 2.54468 -0.545445 -0.254575 -0.080895
10 1 11.2639 5.15374 8.13775 -0.00859854 -0.236009 0.775936
11 1 5.41747 11.1408 2.50171 0.470174 0.221104 -0.40241
12 1 5.40126 10.9392 8.20595 0.104171 0.1845 -0.0777225
13 1 5.33702 5.46819 2.63744 0.670284 -0.472269 -0.540715
14 1 1.49965 3.87061 6.7304 -0.5734 -0.145564 -0.297053
15 1 1.16311 9.52487 1.41358 -0.0483085 0.403438 -0.66256
16 1 5.49768 5.53038 7.95503 0.0311853 -0.735094 0.615004
17 1 1.25302 6.85441 4.00631 0.266628 -0.89156 0.222096
18 1 1.28295 6.78176 9.40132 0.308532 0.00123985 0.0277199
19 1 6.97996 1.23561 3.96432 -0.384752 0.168387 -0.47669
20 1 6.94259 1.18615 9.67777 -0.103907 -0.0520582 -1.24936
21 1 6.84329 6.61795 4.06415 0.189566 0.593588 -1.07228
22 1 6.86068 6.84411 9.39326 0.10124 -0.196669 0.0344017
23 1 11.1486 2.53904 10.9148 -0.172196 0.231066 0.07076
24 1 11.1538 2.53884 5.29518 0.0697915 0.353407 0.352039
25 1 11.093 8.13751 10.8554 -0.700371 -0.292453 0.0341489
26 1 11.0493 8.31703 5.3217 -0.21617 -0.0272884 0.623484
27 1 5.3871 2.73783 10.7442 0.760817 -0.895946 0.420198
28 1 5.54992 2.55873 5.34584 -0.101807 0.0823712 0.315233
29 1 1.42801 1.21559 3.91102 -0.252906 -0.393609 0.148636
30 1 1.32951 1.10446 9.57179 0.641146 0.416075 -0.234329
31 1 5.50151 8.24419 10.7834 -0.706451 -0.210809 0.273034
32 1 5.58315 8.19543 5.26904 -0.899808 0.167756 0.703789
33 1 4.1161 3.99673 4.04808 0.18272 0.00446108 -0.303246
34 1 3.89074 9.61786 9.57394 1.01802 -0.425937 -0.531894
35 1 9.80512 3.92193 3.88806 -0.509496 0.545982 0.203816
36 1 9.71949 3.9063 9.49341 0.231817 0.0253168 -0.198109
37 1 9.45236 9.45566 4.01548 0.382844 0.905404 -0.383031
38 1 9.66244 9.52974 9.52439 -0.189359 0.624917 -0.141322
39 1 2.50298 10.913 10.9819 0.126344 0.43387 -0.196018
40 1 2.57245 11.0591 5.31616 0.388399 -0.150383 0.596461
41 1 2.68157 5.39302 10.7402 0.323055 0.161439 0.265768
42 1 2.74956 5.3926 5.36336 -0.572858 0.293875 -0.057404
43 1 8.26465 10.9697 10.8852 -0.581017 -0.417 0.114647
44 1 8.10881 11.0603 5.28102 0.271821 -0.634649 0.369374
45 1 8.18984 5.29286 10.6802 0.136065 0.287919 0.512164
46 1 4.09213 4.09503 9.29059 0.115654 -0.227488 0.579479
47 1 3.89635 9.44618 4.12631 0.0215882 0.0898044 0.16794
48 1 8.3365 5.24618 5.28864 -0.0736406 0.326871 0.199801
49 1 4.04198 6.86049 1.14388 -0.0328701 -0.158312 0.3002
50 1 4.1223 6.87934 6.64755 -0.183811 0.147421 -0.110077
51 1 9.69611 1.20867 1.29598 0.391622 -0.210462 -0.130529
52 1 9.62208 1.27233 6.66392 0.450746 -0.249674 0.469486
53 1 9.51994 6.67073 1.05889 0.771994 0.752182 1.02542
54 1 9.5535 6.91939 6.46325 -0.610414 0.466602 0.198145
55 1 2.83781 2.67186 2.58963 -0.664994 -0.497803 0.0294206
56 1 2.81862 2.4531 8.12857 -0.293443 0.231958 0.0772127
57 1 2.6394 8.12417 2.64364 0.179654 0.332392 -0.445158
58 1 2.70264 8.20096 8.04196 -0.792729 0.59624 0.230049
59 1 8.2796 2.6734 2.50948 -0.190436 -0.181009 0.426615
60 1 8.24053 2.592 8.16809 0.190938 -0.279029 -0.315087
61 1 4.14528 1.26441 1.17232 -0.195315 -0.10967 0.141311
62 1 4.26318 1.09995 6.80681 -0.203998 0.138854 -0.706494
63 1 8.10605 8.0412 2.56963 0.510957 0.148469 -0.149635
64 1 8.30699 8.22141 8.09428 -0.209791 -0.282392 -0.540199
