ITEM: TIMESTEP
150
ITEM: NUMBER OF ATOMS
64
ITEM: BOX BOUNDS xy xz yz pp pp pp
-2.1577784230499999e-01 1.1187578062354000e+01 -2.1577784230499999e-01
-5.8671844649000000e-02 1.1223192087773000e+01 5.3801181254999997e-02
0.0000000000000000e+00 1.0992593606461000e+01 -5.8671844649000000e-02
ITEM: ATOMS id type x y z fx fy fz
1 1 1.23787 4.05259 1.26296 0.62379 0.668802 -0.177284
2 1 1.23486 9.55397 6.75892 0.47942 1.02067 -0.614128
3 1 6.85323 3.99563 1.27708 0.271153 -1.15696 -1.08065
4 1 6.82922 3.99151 6.71867 0.410209 -0.358716 -0.0468083
5 1 6.81814 9.59168 1.23885 -0.085668 -0.340388 0.21866
6 1 6.87648 9.66219 6.69099 -0.32634 -0.873628 0.880897
7 1 10.9195 11.0784 2.59197 -0.0185732 0.315478 -0.193267
8 1 10.9903 11.0544 8.05719 -0.840643 0.558289 -0.721418
9 1 11.0799 5.53366 2.60442 -0.454511 -0.93412 0.259929
10 1 11.0473 5.48288 8.2368 -0.504384 -0.984617 -1.19474
11 1 5.37278 11.0692 2.46043 -0.353697 -1.46438 1.12435
12 1 5.35009 10.8241 8.09737 0.570762 2.25288 -1.36744
13 1 5.49846 5.29965 2.56965 -1.49638 1.14358 0.965024
14 1 1.21566 4.01899 6.7667 0.804497 0.00599713 0.155896
15 1 1.23932 9.68407 1.27916 0.289295 -0.10211 -0.640033
16 1 5.40523 5.2616 8.12644 0.555647 0.598581 0.30996
17 1 1.40569 6.82432 3.96014 -0.753648 -0.0994817 0.58688
18 1 1.36652 6.79169 9.44952 -0.073302 0.38336 0.630494
19 1 6.86391 1.04309 3.97133 0.460729 1.25701 -0.0677804
20 1 6.93828 1.09398 9.42371 -0.242674 -0.135356 0.300385
21 1 6.98192 6.74838 3.98237 -1.34511 1.00281 0.219928
22 1 6.85218 6.77488 9.40252 -0.0708088 -1.0003 1.21342
23 1 11.1684 2.61639 10.8872 -0.975488 -0.182019 -0.558934
24 1 11.0343 2.55379 5.37289 0.294244 1.9473 -0.908079
25 1 11.1306 8.23842 10.8078 -0.928221 -0.589288 0.787582
26 1 11.1039 8.29155 5.24615 -0.845586 -0.581046 0.485794
27 1 5.48259 2.41186 10.8523 0.982973 1.19698 0.00447488
28 1 5.54429 2.54054 5.28567 -0.61446 -0.101422 0.512588
29 1 1.32061 1.3144 4.01971 0.0479717 -1.02509 -0.577231
30 1 1.32772 1.25532 9.47589 1.00821 -0.754784 -0.0525788
31 1 5.48629 8.13351 10.9075 -0.418805 -0.335268 -0.753329
32 1 5.47929 8.27924 5.43027 0.349253 -1.28795 -1.57881
33 1 3.98533 3.8778 4.02811 1.4376 1.24793 -0.383519
34 1 4.1018 9.49006 9.35478 -0.771867 -0.063244 2.28309
35 1 9.63504 4.02948 3.90379 0.250328 -0.0909331 0.998891
36 1 9.66355 3.88501 9.4598 0.216143 0.744625 0.242832
37 1 9.55468 9.70235 3.97181 0.770491 -0.298699 0.159222
38 1 9.71981 9.70465 9.49347 -1.65406 -1.56856 -0.587224
39 1 2.68671 11.0175 10.7372 -1.12696 -1.01682 -0.0990583
40 1 2.53961 11.0286 5.22338 -0.0770015 -0.0807358 1.17211
41 1 2.70807 5.41949 10.8409 -0.679589 -1.66379 -0.680525
42 1 2.70397 5.39588 5.4036 0.0429387 0.0232863 0.0323812
43 1 8.11827 10.9263 10.834 0.938476 0.650791 -0.423097
44 1 8.11855 11.0186 5.32239 0.568386 0.28912 -0.155383
45 1 8.32205 5.32723 10.8385 -0.752914 0.200164 -0.0729575
46 1 4.08157 3.85231 9.5501 -0.0124408 0.563418 -0.309286
47 1 4.01484 9.65744 3.99416 0.344504 -0.546796 -0.707552
48 1 8.29725 5.4264 5.4634 0.176634 -0.424815 -0.764167
49 1 3.92037 6.72696 1.17482 2.46943 0.763528 1.35724
50 1 4.15304 6.80376 6.81948 -0.497984 -0.51884 -1.01003
51 1 9.72125 1.23277 1.14944 -0.604753 -0.275301 0.835168
52 1 9.68965 1.29219 6.62031 -0.152728 -1.84976 1.63803
53 1 9.59531 6.79885 1.26942 1.22745 0.6973 -1.43293
54 1 9.73692 6.86005 6.71424 -0.349342 0.0327551 0.218373
55 1 2.63308 2.6574 2.58938 0.754507 -1.00287 -0.699347
56 1 2.75343 2.52897 8.06329 -0.70309 0.805917 0.0233097
57 1 2.65243 8.18851 2.5686 0.551253 0.750145 0.0225157
58 1 2.68945 8.17896 8.06527 -0.210854 -0.209205 -0.13807
59 1 8.22535 2.51789 2.65435 0.508832 0.484601 -0.69158
60 1 8.25437 2.54039 8.06071 0.0488096 0.271942 0.0189733
61 1 4.10502 1.10262 1.2131 -0.633553 1.49078 0.681135
62 1 4.09786 1.14865 6.71242 1.04949 -0.656387 0.0574969
63 1 8.38124 8.25161 2.58435 -1.71528 -0.20517 0.302892
64 1 8.17785 8.15884 8.1004 1.78728 1.41082 -0.0127008
