ITEM: TIMESTEP
320
ITEM: NUMBER OF ATOMS
64
ITEM: BOX BOUNDS xy xz yz pp pp pp
-2.1577784230499999e-01 1.1187578062354000e+01 -2.1577784230499999e-01
-5.8671844649000000e-02 1.1223192087773000e+01 5.3801181254999997e-02
0.0000000000000000e+00 1.0992593606461000e+01 -5.8671844649000000e-02
ITEM: ATOMS id type x y z fx fy fz
1 1 1.4302 3.93203 1.17008 -0.166753 0.130404 0.3382
2 1 1.30179 9.44335 6.78896 -1.43221 0.512684 -0.565682
3 1 6.87352 4.0062 1.27297 -0.438948 -0.61898 0.262372
4 1 6.96921 4.08356 6.75263 -0.828861 -0.541103 -0.524221
5 1 6.72094 9.65236 1.19234 0.725028 1.50263 1.58342
6 1 6.78336 9.61147 6.64583 0.416117 -0.202371 0.421963
7 1 10.7908 11.0579 2.58612 1.32753 -1.84353 0.0480425
8 1 10.8648 10.874 8.10826 0.812903 -0.0453652 -0.163239
9 1 11.1582 5.38173 2.49405 0.074596 -1.1278 1.13458
10 1 11.0782 5.45602 8.05246 -0.267608 -0.802583 0.367168
11 1 5.42483 11.1589 2.78918 -0.284493 -1.67072 -1.81006
12 1 5.46914 10.9601 8.00993 -0.182062 1.10662 0.414761
13 1 5.3549 5.37927 2.55065 0.0565051 0.609582 0.0408616
14 1 1.3636 4.00152 6.80746 0.00534491 0.0502063 -0.828071
15 1 1.13057 9.547 1.1787 -0.303807 1.45731 0.419907
16 1 5.50052 5.48326 8.1107 -0.201475 -0.52654 -0.481903
17 1 1.18288 6.86056 3.9452 0.638301 -0.60588 -0.0927539
18 1 1.29499 6.7041 9.49509 0.124067 0.282536 -0.283965
19 1 7.08912 1.27605 4.00355 -0.244427 -0.108395 0.351281
20 1 7.01648 1.21311 9.46359 -0.6208 0.570915 -0.842918
21 1 6.7923 6.79247 3.90545 -0.276677 0.585128 -0.0373557
22 1 6.81494 6.82268 9.52903 -0.583203 -0.621379 1.48687
23 1 11.1992 2.58624 10.764 -0.170265 -1.02504 0.24313
24 1 11.1659 2.56556 5.42327 -0.307481 -0.471015 -0.0227416
25 1 11.073 8.12686 10.7277 -1.9608 -0.700374 1.32013
26 1 10.8796 8.05964 5.33773 0.299566 1.38272 0.762841
27 1 5.55679 2.5929 10.8075 0.0658133 0.326271 -0.191577
28 1 5.59502 2.59878 5.32303 -0.232704 0.810867 0.228198
29 1 1.28615 1.09085 3.97526 1.13109 0.402622 0.696615
30 1 1.49469 1.10546 9.34406 -0.619252 0.131104 0.898045
31 1 5.41084 8.26058 10.9821 -0.454914 -0.740595 -1.73973
32 1 5.43864 8.26907 5.34422 -0.732631 -0.830502 -0.955425
33 1 4.02463 4.02835 3.99863 0.746627 -0.384553 0.270694
34 1 4.1445 9.66358 9.40766 -1.27164 -0.943374 0.983469
35 1 9.83567 3.92147 3.98559 -0.739075 0.977246 -0.0623124
36 1 9.77136 4.06716 9.50396 -0.988874 -0.461392 0.131826
37 1 9.46474 9.60665 4.04167 1.25691 -0.742577 -0.901814
38 1 9.44061 9.47101 9.4476 0.195739 0.805513 0.613345
39 1 2.61768 10.9466 10.8776 0.613184 0.551004 -0.311587
40 1 2.61555 10.9935 5.44247 -0.898231 -0.749902 -1.21762
41 1 2.73436 5.3935 10.8005 -0.292665 -0.735776 -0.0199311
42 1 2.62894 5.44812 5.30034 0.225688 0.128904 0.549648
43 1 8.12008 11.1475 10.8304 0.711487 -2.12768 -0.0377104
44 1 8.18508 10.9768 5.30333 -0.476856 0.807904 0.868725
45 1 8.19791 5.36592 10.9978 0.947625 0.106062 -1.97189
46 1 4.12335 4.07763 9.41255 0.529271 -0.936615 0.438359
47 1 3.93163 9.55821 3.92231 0.640097 1.0641 0.798634
48 1 8.2044 5.41257 5.20364 1.03258 -0.634871 0.553731
49 1 3.89978 6.85469 1.15855 1.08018 0.0644385 1.01774
50 1 4.06619 6.86185 6.71825 -0.138207 -0.47035 -0.146382
51 1 9.74298 1.16493 1.25369 0.020598 1.39067 -1.32148
52 1 9.71767 1.10625 6.7816 0.460618 0.519996 -0.407236
53 1 9.68448 6.61258 1.29155 -0.452254 2.89744 -1.14887
54 1 9.5233 6.69014 6.79664 -0.0570265 0.798127 -0.860103
55 1 2.75462 2.54787 2.68263 -0.18967 -0.250947 -0.789759
56 1 2.85011 2.60296 8.02837 -0.0291747 -0.329891 0.201809
57 1 2.54452 8.2655 2.54485 -0.00898584 -0.4419 0.275533
58 1 2.63841 8.09831 8.1902 1.03837 0.92287 -0.45509
59 1 8.40829 2.61139 2.58817 -0.192661 0.264507 -0.118307
60 1 8.37617 2.65549 8.03656 0.0645312 -0.205949 0.751745
61 1 4.30028 1.23246 1.27203 -1.39733 -0.308957 0.0193471
62 1 4.23901 1.14688 6.65392 0.288722 0.559987 0.647853
63 1 8.22428 8.2459 2.54646 -0.145558 -0.712471 -0.180197
64 1 7.97693 8.08417 8.09091 2.05849 1.199 -0.650899
