ITEM: TIMESTEP
540
ITEM: NUMBER OF ATOMS
64
ITEM: BOX BOUNDS xy xz yz pp pp pp
-2.1577784230499999e-01 1.1187578062354000e+01 -2.1577784230499999e-01
-5.8671844649000000e-02 1.1223192087773000e+01 5.3801181254999997e-02
0.0000000000000000e+00 1.0992593606461000e+01 -5.8671844649000000e-02
ITEM: ATOMS id type x y z fx fy fz
1 1 1.36363 3.939 1.14332 0.550074 -0.0424237 -0.174543
2 1 1.30015 9.52128 6.81216 -0.820122 0.587217 -1.13776
3 1 6.9297 4.05923 1.3662 -1.17706 -1.29472 -0.750347
4 1 6.89658 3.994 6.79223 0.415092 0.20435 -0.589857
5 1 6.69955 9.79023 1.18422 -0.358043 -0.801524 1.14367
6 1 6.80156 9.65396 6.61089 -0.800417 -0.444067 0.672061
7 1 10.9782 11.0381 2.52162 -0.99219 0.200259 1.68915
8 1 10.8107 10.879 8.01586 1.9138 0.646271 0.680444
9 1 11.2032 5.20943 2.53089 -2.72155 2.71807 -0.706885
10 1 11.0708 5.42377 8.09684 -0.334033 -0.739283 0.274095
11 1 5.3395 11.1424 2.75302 0.201684 -0.793934 -0.72329
12 1 5.36006 11.0425 8.01498 0.756668 -0.908106 0.839879
13 1 5.35395 5.43194 2.55477 0.105044 0.0609306 0.618076
14 1 1.44901 3.98325 6.80395 -1.02552 -0.053119 -0.30625
15 1 1.0665 9.67014 1.26702 2.01949 -1.00051 -1.04071
16 1 5.47698 5.49158 8.09138 0.118952 -0.270122 -0.226795
17 1 1.08088 6.7794 3.95891 1.54169 -0.149794 -0.19761
18 1 1.30745 6.7279 9.53778 0.0919941 -0.29571 -0.274352
19 1 7.15353 1.23964 4.02184 -0.828345 -0.449469 -0.265326
20 1 6.90098 1.27409 9.41757 1.04077 -2.09946 1.40123
21 1 6.80135 6.89926 3.87525 -0.294459 0.0984867 0.211126
22 1 6.86158 6.86979 9.54323 -0.283529 -1.36806 1.01247
23 1 11.3385 2.48088 10.7381 -2.90346 0.202929 0.177575
24 1 11.1942 2.56556 5.43251 -0.554878 -0.265797 -0.0100261
25 1 11.1021 8.13401 10.8309 -1.18808 0.768021 -0.360706
26 1 10.9932 8.1225 5.40883 -0.928164 0.630183 0.0932856
27 1 5.54304 2.54833 10.8165 0.190833 1.42648 0.879873
28 1 5.67639 2.51499 5.35451 -1.13141 1.38377 -0.3219
29 1 1.37559 1.15607 3.99246 0.214415 0.00626431 0.105596
30 1 1.46548 1.08625 9.37023 0.189899 -0.653891 -0.129036
31 1 5.38653 8.25478 10.8864 0.141696 -0.217633 -0.29394
32 1 5.28408 8.311 5.28636 1.37944 -0.988793 0.106749
33 1 4.01339 3.94459 4.04487 1.06931 -0.0504717 -0.39113
34 1 4.0259 9.60458 9.44431 -0.0163099 -0.369186 -0.169603
35 1 9.82 3.94561 3.97466 -0.705402 0.255203 0.667877
36 1 9.66866 3.98156 9.46131 0.856454 -0.876886 0.700479
37 1 9.58634 9.59977 3.96519 0.826256 -0.294528 -0.109592
38 1 9.56424 9.59317 9.47534 -0.399231 -1.19444 0.321641
39 1 2.67604 10.9132 10.8786 -0.708321 0.613911 -0.190006
40 1 2.66212 10.9493 5.2687 -1.70186 1.32366 2.09365
41 1 2.78632 5.29928 10.8199 -0.796699 0.395864 -0.221014
42 1 2.55311 5.40807 5.30478 1.03059 0.301937 0.190404
43 1 8.17761 10.9707 10.8909 -0.562729 1.60618 -1.65984
44 1 8.24 10.935 5.30089 -0.247757 0.845637 0.211871
45 1 8.29302 5.33807 11.016 -0.433051 0.811719 -2.32549
46 1 4.11533 4.04044 9.39133 0.986363 -0.830372 0.55822
47 1 3.8444 9.60559 4.04654 1.44392 -0.297138 -2.07548
48 1 8.20188 5.40474 5.23423 0.65761 0.0350546 0.664272
49 1 3.90675 6.84501 1.15801 0.950653 0.13274 0.83606
50 1 4.02043 6.84789 6.66633 -0.100603 -0.481415 0.222209
51 1 9.75816 1.15584 1.27161 0.734363 0.984809 -1.52262
52 1 9.70835 1.12658 6.78912 0.625558 0.1569 -1.09129
53 1 9.6291 6.85555 1.17347 1.43839 -1.54965 1.69283
54 1 9.52604 6.77579 6.87071 0.14054 -0.0761171 -1.50712
55 1 2.64385 2.57433 2.5408 1.02767 -0.158418 0.790129
56 1 2.90145 2.54349 8.01377 -0.701035 0.0591931 0.583529
57 1 2.5456 8.2144 2.57754 -0.540296 -0.0121187 0.228704
58 1 2.584 8.10853 8.14064 1.04767 0.458586 -0.00642966
59 1 8.44971 2.59504 2.59708 -0.452555 0.263855 0.00197721
60 1 8.32477 2.45426 8.08274 0.214386 1.88626 0.1012
61 1 4.16484 1.21848 1.29643 -0.0858868 0.0537731 -0.436676
62 1 4.28563 1.16878 6.72985 -0.855663 -0.110507 -1.32575
63 1 8.2264 8.36991 2.45975 -0.723915 -0.794538 0.659711
64 1 8.02433 8.19146 8.07547 1.45129 0.813675 0.111321
