ITEM: TIMESTEP
560
ITEM: NUMBER OF ATOMS
64
ITEM: BOX BOUNDS xy xz yz pp pp pp
-2.1577784230499999e-01 1.1187578062354000e+01 -2.1577784230499999e-01
-5.8671844649000000e-02 1.1223192087773000e+01 5.3801181254999997e-02
0.0000000000000000e+00 1.0992593606461000e+01 -5.8671844649000000e-02
ITEM: ATOMS id type x y z fx fy fz
1 1 1.27257 3.94036 1.17236 -0.600211 0.627927 0.755067
2 1 1.22297 9.68543 6.6206 0.260756 -0.977338 0.85475
3 1 6.90316 3.97828 1.30342 0.587631 1.0157 0.245437
4 1 6.92455 3.91283 6.74404 -0.281514 0.50361 0.167539
5 1 6.69392 9.64111 1.17883 1.19082 0.0341736 -0.48741
6 1 6.7584 9.58894 6.6601 1.09478 0.269596 0.95356
7 1 10.9878 11.076 2.6077 1.21022 -0.95087 -1.70507
8 1 11.0059 11.0578 8.04528 -1.19126 -1.04473 -0.152228
9 1 10.8979 5.43526 2.57421 1.96986 -1.36767 0.95199
10 1 11.0232 5.25861 8.21001 0.0245336 0.964495 -0.806221
11 1 5.37595 11.0311 2.51866 -0.366881 0.47694 -0.29745
12 1 5.39147 10.9229 8.1045 -0.378888 0.524922 -0.663112
13 1 5.45739 5.42887 2.67612 1.01487 0.31144 -0.598137
14 1 1.2777 3.98104 6.78554 0.775536 -0.000834224 -0.242848
15 1 1.36274 9.44405 1.21441 -2.32101 2.10733 0.446316
16 1 5.5569 5.35055 8.12577 -0.490124 -0.0677483 0.0780873
17 1 1.27475 6.76987 3.99891 -0.963138 0.196153 0.356104
18 1 1.30746 6.70324 9.50262 -0.389818 0.582605 -0.234152
19 1 6.92234 1.1778 3.90277 0.239362 0.266394 0.437844
20 1 6.90025 1.03567 9.56973 -0.555734 2.51246 -1.46238
21 1 6.81512 6.90098 4.03152 0.598835 -0.562869 -0.445138
22 1 6.91417 6.77257 9.5077 0.0252686 0.184795 -0.494896
23 1 10.921 2.51361 10.7942 2.98902 -0.420321 0.413091
24 1 11.1105 2.65399 5.3124 0.0432438 -0.0148326 -0.0847814
25 1 10.9601 8.16338 10.8109 0.846212 -0.779665 0.838904
26 1 10.8862 8.25615 5.35343 1.40288 -0.469944 -0.545474
27 1 5.58955 2.65634 10.9843 -0.0114183 -1.86538 -1.18508
28 1 5.5159 2.63591 5.28745 0.730522 -0.758033 0.392564
29 1 1.43915 1.33122 3.92227 -0.212351 -0.531109 0.408091
30 1 1.38413 1.15907 9.42177 -0.359468 0.708696 0.592013
31 1 5.44028 8.17103 10.7803 -0.269384 -0.291133 0.444909
32 1 5.45175 8.19748 5.38214 -1.67932 0.663352 -1.06549
33 1 4.19177 4.04682 4.00671 -1.0742 0.0362619 0.204264
34 1 3.9907 9.53831 9.39164 -0.140992 0.340741 0.751382
35 1 9.591 4.07266 4.12132 0.212053 -0.289787 -1.19153
36 1 9.688 3.82868 9.53119 -1.05435 1.35004 -0.982537
37 1 9.66358 9.71434 3.9444 -1.27214 -0.72033 0.0216241
38 1 9.59284 9.51556 9.49139 0.701264 1.78658 -0.617443
39 1 2.49882 10.9739 10.7663 1.21199 -0.362392 0.295074
40 1 2.59305 11.0964 5.3411 0.248484 -0.755537 -1.48962
41 1 2.69214 5.35937 10.8595 0.732181 -0.243179 0.268556
42 1 2.6897 5.3982 5.37289 -0.276255 -0.436097 0.0393059
43 1 8.13774 11.0426 10.673 0.762882 -2.02755 1.94899
44 1 8.14153 11.0207 5.30342 -0.210632 -0.162603 -0.411683
45 1 8.32001 5.34167 10.8034 -0.227769 -0.0375577 0.999833
46 1 4.22452 3.90988 9.58439 -0.852061 0.880483 -0.819032
47 1 4.03282 9.6644 3.80262 -0.283579 -0.746674 2.70552
48 1 8.1844 5.48344 5.45643 0.237123 -0.353743 -0.47062
49 1 4.0949 6.81006 1.30903 -0.478144 -0.256444 -0.856236
50 1 4.05544 6.72512 6.74326 0.464382 0.451665 0.27
51 1 9.71056 1.14167 1.11549 -0.340384 -0.360357 1.30404
52 1 9.77285 1.1743 6.55122 -0.281513 0.249904 1.73721
53 1 9.61654 6.78497 1.34521 -0.967669 1.01501 -1.80278
54 1 9.68131 6.78069 6.74664 -0.171397 -0.0686067 0.769955
55 1 2.84394 2.68237 2.60744 -0.776107 -0.110359 -0.526231
56 1 2.76144 2.6045 8.12967 0.835177 -0.608796 -0.640551
57 1 2.63071 8.12142 2.66053 0.493607 0.323568 -0.323887
58 1 2.64215 8.17617 8.06184 -0.726938 -0.145828 -0.516408
59 1 8.36828 2.55331 2.58551 -0.204306 0.342993 0.283023
60 1 8.31364 2.52796 8.09321 -0.189866 -0.930233 -0.154982
61 1 4.0995 1.21828 1.18486 0.189266 -0.171824 0.183821
62 1 4.23012 1.14096 6.63976 -0.317869 0.970275 1.50583
63 1 8.19373 8.28012 2.56809 -0.0325182 0.0982911 0.296637
64 1 8.29968 8.25312 8.09624 -1.14357 -0.906014 -0.647929
