ITEM: TIMESTEP
640
ITEM: NUMBER OF ATOMS
64
ITEM: BOX BOUNDS xy xz yz pp pp pp
-2.1577784230499999e-01 1.1187578062354000e+01 -2.1577784230499999e-01
-5.8671844649000000e-02 1.1223192087773000e+01 5.3801181254999997e-02
0.0000000000000000e+00 1.0992593606461000e+01 -5.8671844649000000e-02
ITEM: ATOMS id type x y z fx fy fz
1 1 1.36577 3.98126 1.17209 0.380932 -0.947757 0.16864
2 1 1.17935 9.49444 6.73818 -0.272971 -0.333885 -0.0734641
3 1 6.97516 4.01703 1.22377 -0.937501 -0.168571 0.885469
4 1 6.92697 4.11036 6.60888 0.378493 -0.914366 1.06779
5 1 6.76552 9.6719 1.24845 0.744946 0.172318 1.18617
6 1 6.78065 9.5361 6.62524 -0.344832 -0.0277701 1.4288
7 1 10.9815 11.0205 2.61892 -0.489506 -0.112415 0.0965509
8 1 10.9887 10.9381 8.16868 -0.270315 0.0144644 -0.256991
9 1 11.0599 5.30174 2.50412 -0.80656 0.99021 -0.253639
10 1 11.0259 5.37926 8.1235 -0.383137 0.238768 -0.431357
11 1 5.38384 11.1694 2.66457 -0.491168 -1.51191 -0.375612
12 1 5.39285 10.966 8.10762 0.603669 0.32068 -0.469266
13 1 5.39797 5.38008 2.52868 1.11753 0.946294 0.147604
14 1 1.29272 3.93075 6.84514 0.490079 0.560307 -0.974642
15 1 1.18863 9.58556 1.22303 -0.512101 0.255252 -0.367374
16 1 5.56422 5.41261 8.04963 -0.654043 -0.234618 0.178084
17 1 1.19747 6.72156 3.9103 0.212631 0.217925 0.624332
18 1 1.24084 6.79211 9.46478 0.37545 -0.0483114 -0.099965
19 1 7.03386 1.22451 3.95775 0.550788 -0.0666748 1.35586
20 1 6.86627 1.30891 9.46994 1.85041 -1.66662 0.222854
21 1 6.8428 6.79029 4.01969 -0.875807 0.663157 -1.97036
22 1 6.67696 6.90854 9.48363 1.50938 -1.99555 1.31288
23 1 11.1874 2.44659 10.7202 -0.170133 0.894781 0.840218
24 1 11.0687 2.63173 5.35212 0.0696123 -0.368865 0.617977
25 1 10.9092 8.1391 10.8166 0.515598 0.295085 0.29308
26 1 10.8132 8.10262 5.26116 2.1379 0.492134 0.956671
27 1 5.61511 2.68823 10.867 -0.467043 -0.921908 0.318117
28 1 5.54618 2.67714 5.35966 0.726797 -0.726348 -0.736937
29 1 1.32255 1.21142 4.07639 0.85904 -0.766455 0.0834625
30 1 1.58669 1.21224 9.39308 -0.951592 -0.999746 0.293526
31 1 5.44514 8.2805 10.9537 -0.88316 -0.758047 -0.253882
32 1 5.38681 8.23449 5.22287 -0.11886 -0.428508 0.454777
33 1 4.21108 4.04129 3.95625 -1.53294 -0.66538 0.593774
34 1 4.10916 9.58504 9.47753 -0.988891 -0.0914378 0.135735
35 1 9.72614 4.08199 4.05889 -0.600097 -1.14548 -1.62093
36 1 9.68373 3.98277 9.51529 -0.0815967 -0.408247 -0.352414
37 1 9.57862 9.61338 4.05835 -0.0666433 0.0848487 -1.4077
38 1 9.44687 9.5425 9.54116 0.899608 0.404897 -0.662767
39 1 2.58385 10.9304 10.7842 1.19565 0.788339 0.906822
40 1 2.57287 10.9042 5.44652 -0.463591 1.1196 -0.576304
41 1 2.73781 5.32868 10.6624 -0.0982271 0.582943 1.43023
42 1 2.66617 5.36172 5.36589 -0.120697 -0.112146 -0.345125
43 1 8.21624 11.049 10.9013 -1.67693 0.238838 -1.24179
44 1 8.21829 10.907 5.46108 -0.67977 1.60878 -1.41935
45 1 8.20275 5.34848 10.8801 -0.240502 1.63838 -1.87854
46 1 4.24668 3.93818 9.48359 -0.509646 0.726469 -0.908711
47 1 3.88688 9.63553 3.9682 0.782089 0.058699 -0.5517
48 1 8.22987 5.48697 5.2267 0.565776 -0.861008 0.93462
49 1 3.92039 6.84634 1.28276 0.751778 -0.468473 -1.13517
50 1 4.1295 6.71098 6.66043 -0.700785 0.952464 0.327459
51 1 9.74223 1.19311 1.2417 1.30262 -0.236584 -0.350095
52 1 9.78901 1.14322 6.76381 -0.0942051 0.034786 0.194192
53 1 9.49166 6.81729 1.19614 1.82217 -1.2334 0.101473
54 1 9.54961 6.79538 6.70204 0.125716 -0.479604 0.916162
55 1 2.7585 2.52832 2.73967 -0.103867 0.971212 -1.38563
56 1 2.87322 2.59925 8.02937 0.348685 -0.31506 -0.00919294
57 1 2.52371 8.18961 2.57746 0.136693 0.23467 0.461594
58 1 2.6951 8.16295 8.09625 -0.00445068 -0.266101 -0.238066
59 1 8.40883 2.57136 2.48146 -0.204499 1.22376 1.91906
60 1 8.32431 2.59264 8.00738 -0.150887 0.467232 0.391057
61 1 4.22856 1.26348 1.24879 -1.11546 -0.615282 -0.486237
62 1 4.30961 1.13691 6.67019 -0.912356 0.129043 0.323242
63 1 8.30977 8.15192 2.57588 -1.94758 1.54682 0.657403
64 1 8.11274 8.10853 8.15134 0.468298 1.02338 -0.992499
