ITEM: TIMESTEP
690
ITEM: NUMBER OF ATOMS
64
ITEM: BOX BOUNDS xy xz yz pp pp pp
-2.1577784230499999e-01 1.1187578062354000e+01 -2.1577784230499999e-01
-5.8671844649000000e-02 1.1223192087773000e+01 5.3801181254999997e-02
0.0000000000000000e+00 1.0992593606461000e+01 -5.8671844649000000e-02
ITEM: ATOMS id type x y z fx fy fz
1 1 1.22563 3.99824 1.25301 0.372754 0.912586 0.455083
2 1 1.2191 9.72647 6.69669 0.645328 0.301597 0.0244561
3 1 6.80084 4.04705 1.1945 0.808318 -0.0136618 0.16195
4 1 6.86342 3.97007 6.77179 -0.0717075 -0.616147 0.510946
5 1 6.81042 9.57529 1.09571 -0.713171 -0.372813 0.845788
6 1 6.82518 9.66042 6.80073 -0.272378 -0.635837 -1.39645
7 1 10.9111 11.0381 2.50323 -0.16323 -0.188418 0.681285
8 1 10.8888 11.0884 8.10344 0.272451 -0.447472 -1.06572
9 1 10.9212 5.50686 2.75075 0.820702 -1.35225 -0.900714
10 1 11.0541 5.37341 8.07471 0.54088 -0.0470117 0.061515
11 1 5.28573 10.9337 2.50582 1.70212 1.19161 0.565911
12 1 5.30186 10.9899 8.06309 0.505418 0.304462 0.715785
13 1 5.59591 5.41826 2.63331 -2.33915 -0.732149 -0.711391
14 1 1.35045 3.9839 6.68382 -0.165073 0.190358 0.112371
15 1 1.21865 9.56843 1.32492 0.512373 0.672692 -0.763451
16 1 5.47174 5.30426 8.16342 0.376512 0.366547 -0.200863
17 1 1.20236 6.96635 3.99845 1.36221 -1.3062 0.091104
18 1 1.30226 6.7683 9.49825 0.645942 -0.176713 -0.0571889
19 1 6.97287 1.1991 4.05842 -1.38736 -0.256786 -2.07366
20 1 6.92915 1.0905 9.60821 -0.254177 0.844163 -1.57181
21 1 6.86005 6.69528 3.91902 0.428551 0.66533 1.98539
22 1 7.12599 6.61109 9.453 -2.49931 1.87686 -1.05782
23 1 11.002 2.49945 10.8566 0.358156 0.98753 0.267114
24 1 11.2007 2.66615 5.16317 -0.887086 -0.596234 0.991761
25 1 11.0967 8.13108 10.9249 -0.368378 0.332456 -0.826236
26 1 11.0501 8.32302 5.36057 -1.15092 -0.669136 0.316662
27 1 5.50299 2.6106 10.8653 0.427676 -0.899252 -0.316356
28 1 5.52645 2.60589 5.38133 -0.285643 -0.51879 0.500464
29 1 1.43353 1.1756 3.9018 -0.443964 0.282904 -0.440459
30 1 1.25253 1.20476 9.49849 0.763224 -0.458449 0.353904
31 1 5.50222 8.12019 10.6232 0.683736 -0.322572 1.11497
32 1 5.49635 8.11226 5.31416 -0.188513 0.552367 1.10131
33 1 4.12256 3.94763 4.03392 0.43462 0.730288 -0.852193
34 1 4.02661 9.61232 9.53587 -0.632983 -0.196656 -0.95187
35 1 9.49122 3.94813 4.05111 1.77023 1.08308 -0.146682
36 1 9.72878 3.97617 9.43514 -0.627429 -0.284872 0.675923
37 1 9.56903 9.60599 3.95081 0.0762315 -0.0124278 -0.187523
38 1 9.7153 9.5491 9.41096 -0.8891 -0.430121 0.513285
39 1 2.53332 10.9938 10.8074 -0.134957 -0.322647 0.204905
40 1 2.67434 11.0962 5.17531 -0.380137 -0.478367 1.96889
41 1 2.86542 5.37097 10.8784 -1.8007 -0.156545 0.0556003
42 1 2.68917 5.38884 5.28021 -0.0274268 0.873874 0.613808
43 1 8.15937 10.9201 10.7523 0.827772 -0.256897 0.43684
44 1 8.16328 10.9824 5.20596 0.0967276 0.211287 1.48299
45 1 8.30804 5.41442 10.896 1.11943 -1.50905 0.204405
46 1 4.10356 3.88931 9.49252 -0.359828 0.38048 -0.165722
47 1 4.08486 9.57304 4.01224 0.0832739 0.181544 0.0918899
48 1 8.20547 5.32705 5.46842 0.205702 0.570847 -0.907005
49 1 4.15129 6.8714 1.20264 0.0954845 -0.340784 0.4565
50 1 4.07887 6.78077 6.81541 -0.14846 -0.0807257 -0.765009
51 1 9.60832 1.16641 1.22241 -0.00710079 0.397989 0.243942
52 1 9.78628 1.21225 6.57229 -0.336785 0.0719621 0.672303
53 1 9.68134 6.8025 1.25083 -1.83551 1.04041 1.00986
54 1 9.66401 6.7175 6.7143 0.460427 1.07107 -0.615112
55 1 2.80423 2.59383 2.57249 -0.475136 0.098905 -0.487902
56 1 2.61221 2.52368 8.13671 0.518154 0.962803 -0.0791922
57 1 2.74634 8.26155 2.65152 -0.699805 -0.646532 -0.659471
58 1 2.61524 8.27873 8.06725 0.133338 -0.433395 0.228594
59 1 8.25879 2.74551 2.57826 -0.592583 -1.92419 -0.399279
60 1 8.30651 2.50115 8.12854 0.0397642 0.21878 -0.47081
61 1 4.1361 1.15927 1.12129 -0.248583 0.374857 1.00311
62 1 4.09376 1.24542 6.8745 0.43926 -0.529906 -1.73683
63 1 8.04741 8.22469 2.69957 2.41011 -0.427528 -2.15372
64 1 8.26115 8.17083 7.95307 0.449716 -0.109104 1.23983
