ITEM: TIMESTEP
760
ITEM: NUMBER OF ATOMS
64
ITEM: BOX BOUNDS xy xz yz pp pp pp
-2.1577784230499999e-01 1.1187578062354000e+01 -2.1577784230499999e-01
-5.8671844649000000e-02 1.1223192087773000e+01 5.3801181254999997e-02
0.0000000000000000e+00 1.0992593606461000e+01 -5.8671844649000000e-02
ITEM: ATOMS id type x y z fx fy fz
1 1 1.3005 4.01915 1.14496 0.202142 -0.233381 0.543371
2 1 1.25746 9.55193 6.6949 -0.1998 0.9305 -0.282106
3 1 6.95777 4.02494 1.28838 -0.369101 0.556134 0.196997
4 1 6.9415 3.96228 6.81373 -0.385744 0.226181 -0.550796
5 1 6.63208 9.69966 1.16346 0.760221 0.147303 0.151597
6 1 6.77226 9.70652 6.71636 -0.463595 -0.583281 -0.42172
7 1 11.0019 11.0133 2.60369 -0.483765 0.265622 0.229042
8 1 10.8459 10.9826 7.97072 1.16634 -0.0590976 0.746269
9 1 10.9637 5.36325 2.47077 -0.34544 -0.821056 0.556186
10 1 11.0161 5.29947 8.16401 -0.00375365 0.178031 -0.638365
11 1 5.34187 11.0857 2.60968 0.386057 0.148927 -0.0738637
12 1 5.2971 11.0224 8.09088 1.28212 -0.243108 0.971837
13 1 5.50794 5.50884 2.65181 -1.42077 -0.839895 -0.980424
14 1 1.37554 3.94079 6.76038 -0.0469272 0.0346112 0.0409176
15 1 1.13306 9.55022 1.28638 0.848999 -0.107107 -0.529108
16 1 5.47649 5.48145 7.98666 0.630519 -0.94743 1.35056
17 1 0.956812 6.65264 3.96749 3.4882 0.731979 1.05373
18 1 1.31316 6.63848 9.5621 -0.296076 0.455755 -0.754288
19 1 7.11127 1.16301 4.01303 -1.43762 0.470203 -1.04594
20 1 7.04019 1.15269 9.56576 -1.5678 0.154988 -0.957126
21 1 6.79821 6.93678 3.92636 0.385025 -0.534285 1.41111
22 1 6.95559 6.75115 9.46319 -1.68693 0.893715 -0.161872
23 1 11.1709 2.51582 10.8128 -0.590699 0.0852999 -0.0773466
24 1 11.1847 2.57469 5.2876 -0.445834 0.132178 0.565086
25 1 10.9884 8.0726 10.8408 0.469583 0.814236 -0.321123
26 1 10.9514 8.25769 5.33155 -0.52418 -1.48786 0.808467
27 1 5.60855 2.65316 10.893 0.26612 -0.824999 -0.123358
28 1 5.70379 2.62591 5.28147 -0.536591 -0.507024 0.715831
29 1 1.4801 1.24451 3.94676 -0.234436 -0.503308 -0.0462569
30 1 1.37413 1.14597 9.44908 1.16729 -0.966388 -0.135575
31 1 5.41644 8.22598 10.748 0.4276 -1.05845 0.497041
32 1 5.31337 8.16531 5.40667 0.82052 1.31741 -0.860053
33 1 4.1296 3.91821 4.08558 0.710511 1.23416 -1.35795
34 1 4.00595 9.52155 9.47557 -0.778194 0.443401 -0.969098
35 1 9.65358 3.92243 3.99313 0.536505 1.26847 0.418003
36 1 9.61941 3.83867 9.43147 0.432964 1.2436 1.25091
37 1 9.60022 9.59222 3.99722 -0.0645428 0.734636 -0.494902
38 1 9.62059 9.52254 9.42968 -0.608769 0.525399 0.311491
39 1 2.65716 10.8835 10.9133 -1.10497 0.783416 -0.822096
40 1 2.68688 11.0444 5.31217 -0.434081 -0.104879 0.384815
41 1 2.82006 5.26472 10.8445 -1.00614 0.537669 -0.35266
42 1 2.72321 5.34681 5.34454 -1.59689 0.695147 -0.497764
43 1 8.16653 11.0107 10.8109 0.972409 -0.83945 0.685794
44 1 8.22017 11.0042 5.23947 -0.106392 -0.215599 1.43471
45 1 8.27602 5.47379 10.8627 0.726242 -1.70662 -0.244226
46 1 4.27131 4.04847 9.52438 -0.542108 -1.0875 -1.38724
47 1 4.00453 9.64121 3.8963 -0.242558 -0.776013 0.748937
48 1 8.17779 5.39633 5.38787 0.610935 0.435692 -0.854435
49 1 3.9555 6.84662 1.09823 1.42664 -0.221935 1.83446
50 1 4.01183 6.78243 6.74985 -0.386191 0.0807912 -0.34646
51 1 9.75757 1.21372 1.27499 0.111156 -0.433117 -0.476532
52 1 9.7132 1.22065 6.66707 0.625232 -0.493701 -0.252567
53 1 9.62765 6.8611 1.27113 -2.16005 1.02699 0.595574
54 1 9.50913 6.80049 6.84754 1.21323 0.265475 -1.10514
55 1 2.74987 2.71454 2.55085 0.189214 -0.800367 0.151095
56 1 2.89739 2.52553 8.02342 -0.592626 0.747426 1.40566
57 1 2.57575 8.09534 2.63981 -0.706478 0.25684 0.00545433
58 1 2.53528 8.11711 8.04498 0.56544 0.103564 1.03926
59 1 8.38814 2.60736 2.63459 -0.639068 -0.451468 -0.786414
60 1 8.307 2.45117 8.07837 -0.0453183 0.687631 -0.0417339
61 1 4.16199 1.21732 1.23489 -0.10782 0.585316 -0.0822956
62 1 4.3438 1.2242 6.73132 -0.831913 -0.0972044 -1.01392
63 1 8.06496 8.45516 2.61904 1.57583 -2.19358 -1.36534
64 1 8.07237 8.26196 8.06418 0.996141 -0.0605839 0.305881
