ITEM: TIMESTEP
780
ITEM: NUMBER OF ATOMS
64
ITEM: BOX BOUNDS xy xz yz pp pp pp
-2.1577784230499999e-01 1.1187578062354000e+01 -2.1577784230499999e-01
-5.8671844649000000e-02 1.1223192087773000e+01 5.3801181254999997e-02
0.0000000000000000e+00 1.0992593606461000e+01 -5.8671844649000000e-02
ITEM: ATOMS id type x y z fx fy fz
1 1 1.26925 4.01199 1.34021 -0.0296771 0.0857278 -0.531112
2 1 1.20698 9.71666 6.63915 -0.0407875 -1.19304 0.0908735
3 1 6.93348 4.14691 1.30123 -0.326242 -1.02994 -0.60116
4 1 6.89399 3.95256 6.79092 0.532841 0.319771 -0.110092
5 1 6.80636 9.6075 1.12215 -0.579217 -0.141522 0.418964
6 1 6.77634 9.64442 6.70469 0.495215 -0.0175575 0.933574
7 1 10.9732 11.022 2.53848 -0.00874267 -0.541137 0.154276
8 1 10.9576 11.0442 8.07386 -0.0971395 -0.231137 -0.329971
9 1 10.9721 5.41529 2.69123 0.447414 0.703885 -0.648001
10 1 11.0342 5.31148 8.11277 -0.0493836 -0.0089298 -0.0316271
11 1 5.37296 11.0639 2.47367 -0.447935 -1.15255 0.367768
12 1 5.42243 10.9604 8.16671 -1.33932 0.235184 -1.18061
13 1 5.40807 5.46809 2.56932 2.0097 0.432006 1.00968
14 1 1.30501 3.98052 6.75046 0.285113 -0.365184 -0.0928877
15 1 1.25991 9.46419 1.2417 -0.68654 0.828508 -0.143235
16 1 5.46987 5.30476 8.20474 -0.41908 0.421207 -1.08461
17 1 1.42606 6.76824 4.05206 -2.28507 0.245696 -0.363791
18 1 1.26547 6.6703 9.4476 -0.0549998 0.517646 0.307279
19 1 6.84762 1.20199 3.88355 0.75734 0.00824287 1.02269
20 1 6.91493 1.18117 9.41165 2.0768 -0.781444 1.13672
21 1 6.80479 6.7841 4.22197 -0.420798 0.811121 -2.23588
22 1 6.81073 6.81876 9.39297 1.08277 -0.591404 0.503683
23 1 11.0803 2.53338 10.9238 0.653415 -0.361065 -0.123898
24 1 11.1439 2.62664 5.24748 0.241833 -0.164297 -0.00918321
25 1 11.0157 8.0793 10.8042 -0.356175 0.286925 0.461187
26 1 10.9022 8.15258 5.29146 1.39629 1.3182 -0.388184
27 1 5.69277 2.57781 10.8697 -0.859485 0.378556 -0.0570838
28 1 5.56512 2.62115 5.34748 -0.246155 0.305036 -0.481743
29 1 1.50704 1.21876 3.86712 -0.469658 0.0342999 0.45872
30 1 1.4099 1.14543 9.48257 -0.773538 0.606665 0.0821593
31 1 5.43733 8.13073 10.7734 -0.57277 0.620307 0.204128
32 1 5.39516 8.37904 5.38199 0.188935 -2.38722 0.738841
33 1 4.21815 4.1619 3.9546 -1.24383 -1.68606 1.16124
34 1 3.90826 9.52399 9.35907 0.820883 0.338592 1.18795
35 1 9.62073 4.08163 4.04936 -0.415346 -1.54358 -0.896286
36 1 9.74457 3.89919 9.55815 -0.554806 0.166524 -0.684457
37 1 9.49132 9.67999 3.92539 0.184652 -0.459369 0.384192
38 1 9.6072 9.54126 9.42656 0.860535 -0.207306 -0.302963
39 1 2.48245 10.9425 10.7694 1.69958 -0.0147101 1.1005
40 1 2.68405 11.0205 5.25788 -0.433212 0.0762536 0.226714
41 1 2.63338 5.36679 10.8537 1.09949 -0.0811138 0.820515
42 1 2.6463 5.39201 5.39598 1.09857 -0.553581 0.0891667
43 1 8.27287 10.857 10.753 -1.82164 1.46395 -0.504107
44 1 8.06767 11.0663 5.40935 0.637711 0.265999 -1.48855
45 1 8.31401 5.36588 10.8027 -0.663342 0.443529 -0.249231
46 1 4.10152 3.88833 9.52797 0.418023 0.794979 0.731412
47 1 4.08308 9.52974 3.98971 -0.78105 1.59303 -1.44255
48 1 8.27704 5.45482 5.41877 -0.151477 -0.672032 0.601455
49 1 4.09883 6.83488 1.32742 -1.1499 -0.0413654 -1.9488
50 1 4.03562 6.75881 6.73979 0.43818 0.551056 0.467021
51 1 9.66214 1.06486 1.17965 0.628371 0.885592 0.40443
52 1 9.8536 1.20224 6.59505 -0.857287 -0.135564 0.819227
53 1 9.47308 6.82752 1.25605 1.44653 -0.206069 0.0345907
54 1 9.75473 6.80445 6.74738 -1.07902 -0.436118 0.315149
55 1 2.85249 2.70671 2.58952 -0.25658 -0.201097 -0.0705892
56 1 2.72676 2.61795 8.18391 0.359969 -0.961424 -1.44213
57 1 2.65093 8.12929 2.65464 0.418288 0.757763 -0.279785
58 1 2.52931 8.15623 8.08939 0.128713 0.0866542 -0.959191
59 1 8.26187 2.52479 2.52921 0.827814 1.29126 0.937998
60 1 8.3926 2.53719 8.04365 -0.0294767 0.077308 0.283418
61 1 4.17279 1.26771 1.18462 -0.639113 -0.815399 -0.599632
62 1 4.21078 1.20304 6.68467 -0.309024 -0.0407088 1.11496
63 1 8.10997 8.18793 2.60066 -0.189958 0.336574 0.591591
64 1 8.27375 8.21363 8.01399 -0.597197 -0.266125 0.119252
