ITEM: TIMESTEP
790
ITEM: NUMBER OF ATOMS
64
ITEM: BOX BOUNDS xy xz yz pp pp pp
-2.1577784230499999e-01 1.1187578062354000e+01 -2.1577784230499999e-01
-5.8671844649000000e-02 1.1223192087773000e+01 5.3801181254999997e-02
0.0000000000000000e+00 1.0992593606461000e+01 -5.8671844649000000e-02
ITEM: ATOMS id type x y z fx fy fz
1 1 1.22661 3.99335 1.41134 0.76476 0.493029 -0.934162
2 1 1.24753 9.67075 6.68625 -0.689407 -0.457304 -0.87259
3 1 6.87967 4.08638 1.20484 -0.366127 -0.946043 0.32964
4 1 6.92237 4.016 6.75363 -0.170932 -0.586251 0.077584
5 1 6.86499 9.44106 1.18999 -1.104 1.96323 -0.24059
6 1 6.84283 9.59569 6.79044 -0.239437 0.107039 -0.227291
7 1 11.0108 10.9677 2.48614 -1.68893 -0.220222 1.23698
8 1 11.0643 10.9734 8.05104 -1.04355 0.888958 0.720083
9 1 11.1056 5.59178 2.77218 -1.71597 -2.12331 -1.43483
10 1 11.051 5.3093 8.04148 0.141497 0.420319 0.580799
11 1 5.32671 11.0419 2.39186 0.945025 -1.46676 1.27171
12 1 5.31633 11.0015 8.03038 0.613626 -0.0171492 0.857905
13 1 5.52884 5.47511 2.61998 -0.136922 -0.444182 0.101303
14 1 1.31299 3.93745 6.76286 0.311739 0.19459 -0.794515
15 1 1.29434 9.64759 1.20884 -0.924413 -1.43369 -0.153403
16 1 5.42441 5.2948 8.14914 0.351576 0.0839589 0.230225
17 1 1.38399 6.85227 3.98455 0.37915 0.495696 1.06095
18 1 1.22076 6.78426 9.38584 0.533952 -0.0223329 0.938367
19 1 6.78028 1.21346 3.86816 0.514683 0.269594 0.789592
20 1 7.02348 1.17499 9.41332 -0.25182 -0.275086 -0.0267007
21 1 6.8565 6.72897 4.10212 -0.238636 1.13931 -0.171253
22 1 6.87402 6.73687 9.4142 -0.693417 0.921315 0.405768
23 1 11.1464 2.51163 10.8671 -0.60184 0.450617 1.09025
24 1 11.1384 2.62277 5.24794 -0.256054 -0.399575 0.310521
25 1 10.9472 8.15834 10.8563 0.889061 0.108794 -0.186115
26 1 10.9919 8.28555 5.22476 0.303892 -0.490058 0.947033
27 1 5.60968 2.54291 10.8023 -0.181892 -0.150081 0.350419
28 1 5.39156 2.62338 5.39343 1.11681 0.0527873 -0.517076
29 1 1.39919 1.19305 3.86439 0.184449 -0.0799634 0.777329
30 1 1.39208 1.23437 9.5661 0.0691627 -1.23411 -0.960787
31 1 5.36556 8.19674 10.8686 0.797382 -0.985343 -1.09722
32 1 5.42578 8.28607 5.4067 0.289332 -1.10672 -0.171566
33 1 4.1366 4.13864 3.9642 -0.253837 -1.26361 0.411287
34 1 3.9452 9.59598 9.4554 0.194409 -0.14898 -0.184469
35 1 9.58946 4.02227 4.04236 0.860837 0.00984175 -0.927456
36 1 9.81107 3.91558 9.5158 -1.71451 1.23818 0.566726
37 1 9.46005 9.51797 3.92331 1.07281 2.5397 0.432009
38 1 9.67175 9.56718 9.42825 -0.156209 -0.0347128 -0.161197
39 1 2.53885 10.9572 10.8161 0.76653 0.60502 -0.451151
40 1 2.56693 10.9957 5.32403 0.399354 0.699217 -0.614326
41 1 2.68152 5.4307 10.9306 -0.437927 -0.748513 -0.376409
42 1 2.75141 5.36208 5.45721 -0.545346 0.566083 -0.84936
43 1 8.21096 10.9079 10.7354 -0.377909 -0.0886594 0.376205
44 1 8.009 11.0775 5.33973 1.54765 -0.186457 -0.437839
45 1 8.19361 5.4246 10.8549 1.55526 -1.55481 -1.49024
46 1 4.05366 3.85338 9.59794 0.000788083 1.05522 -0.729777
47 1 4.05428 9.63479 3.99522 -0.306946 -0.00253184 -0.884936
48 1 8.33292 5.43973 5.42813 -1.04839 -0.708703 -0.367981
49 1 4.05119 6.82181 1.37008 0.718762 -0.50303 -1.78861
50 1 4.12148 6.74772 6.79311 -0.760701 1.05246 0.0976808
51 1 9.6609 1.09784 1.21527 0.446342 0.527594 -0.125707
52 1 9.8422 1.22834 6.74344 -0.738677 -0.795644 -0.947907
53 1 9.58149 6.71253 1.1509 -0.0123294 1.74235 2.2739
54 1 9.72936 6.74717 6.68513 0.352972 0.763532 0.0670216
55 1 2.85821 2.59503 2.59555 -0.606005 0.347968 -0.107137
56 1 2.6531 2.54263 8.08733 0.770382 0.231672 0.702427
57 1 2.70168 8.17631 2.4833 -0.670841 1.40342 1.90772
58 1 2.50676 8.2746 7.98761 1.59548 -1.38394 0.825862
59 1 8.25893 2.5827 2.53212 0.130372 0.370006 0.44731
60 1 8.43713 2.60851 8.07671 -0.611014 -0.226099 0.0814571
61 1 4.1457 1.14213 1.15928 -0.149155 0.873824 -0.393675
62 1 4.09514 1.17609 6.79309 0.0377055 0.12481 -0.723136
63 1 8.11578 8.19379 2.67671 0.885368 -1.86379 -1.45071
64 1 8.36035 8.13554 8.01702 -0.847982 0.207521 0.534063
