ITEM: TIMESTEP
940
ITEM: NUMBER OF ATOMS
64
ITEM: BOX BOUNDS xy xz yz pp pp pp
-2.1577784230499999e-01 1.1187578062354000e+01 -2.1577784230499999e-01
-5.8671844649000000e-02 1.1223192087773000e+01 5.3801181254999997e-02
0.0000000000000000e+00 1.0992593606461000e+01 -5.8671844649000000e-02
ITEM: ATOMS id type x y z fx fy fz
1 1 1.3169 4.0368 1.13741 0.480118 -0.286628 -0.0343601
2 1 1.27993 9.57423 6.83196 -0.560572 -0.531523 -0.335374
3 1 6.86729 3.92246 1.24802 -0.193172 -0.200863 -0.0978976
4 1 6.91493 3.98173 6.58642 -0.440482 -0.103245 0.637637
5 1 6.79153 9.62264 1.35296 0.149232 0.268799 -0.582289
6 1 6.81812 9.4608 6.7662 0.516084 1.02775 -0.285274
7 1 10.8954 11.0322 2.70123 -0.034447 0.69401 -0.965094
8 1 10.9384 11.0004 8.12609 -0.193071 -0.0129847 0.252021
9 1 11.1636 5.34028 2.50357 -1.36802 0.854031 0.680145
10 1 11.0496 5.43564 8.1135 -0.248326 -0.137345 -0.117246
11 1 5.27793 10.9409 2.72776 0.0627921 0.753572 -1.52112
12 1 5.4155 10.8868 8.03064 0.274613 0.876405 0.863293
13 1 5.48105 5.37765 2.61329 -0.529837 -0.415001 -0.30085
14 1 1.30439 4.06928 6.73722 -0.060273 -0.534812 -0.0564222
15 1 1.15568 9.82029 1.2202 0.639426 -1.60147 0.172987
16 1 5.51833 5.45117 8.04285 0.0243252 -0.629625 -0.182157
17 1 1.34438 6.80758 3.9293 0.165338 -0.874243 -0.238506
18 1 1.28733 6.88924 9.40078 0.384609 -0.921041 0.50687
19 1 6.85802 1.09335 4.01081 0.559578 0.0857795 -0.29603
20 1 7.10351 1.12248 9.49362 -2.49881 0.368669 -1.09875
21 1 6.84 6.87612 3.83801 1.19604 -0.937566 1.25998
22 1 6.82688 6.80411 9.51694 -0.0169867 0.286902 -0.36922
23 1 11.1851 2.61198 10.763 -0.615727 -0.0986141 0.21965
24 1 10.9252 2.60885 5.46834 1.05722 -0.0887052 -0.18344
25 1 11.0548 8.25271 10.7407 0.299127 0.409186 0.908674
26 1 11.1472 8.17489 5.23092 -1.51611 0.153882 1.82069
27 1 5.49146 2.46715 10.7576 0.498899 0.409457 1.05108
28 1 5.49839 2.50426 5.19222 -0.491296 0.781159 1.63015
29 1 1.2426 1.24958 4.09146 0.387874 -0.148085 -0.0864872
30 1 1.41419 1.22836 9.45387 0.488281 -0.565337 -0.0788999
31 1 5.44386 8.21728 10.946 0.501134 -0.835847 -0.109641
32 1 5.46771 8.22234 5.35794 0.110015 0.213303 -1.57117
33 1 4.00357 3.94658 3.99589 1.09916 -0.221569 -1.00368
34 1 4.12581 9.51086 9.52814 -0.843254 0.864702 -0.17735
35 1 9.72644 3.87765 3.88049 -0.416546 1.02365 0.418435
36 1 9.67124 3.95291 9.4929 0.350076 0.351142 -0.709456
37 1 9.59649 9.63689 4.03239 -0.0792052 -0.590139 -0.091321
38 1 9.56501 9.6894 9.64693 0.118981 -0.657547 -1.52252
39 1 2.69623 11.056 10.8758 -0.878763 -0.635422 -1.09508
40 1 2.42367 10.964 5.38677 1.26595 0.623941 -0.41141
41 1 2.68838 5.43999 10.821 -0.157152 -0.407836 -0.705641
42 1 2.75906 5.32453 5.31661 -0.698042 1.3701 0.449731
43 1 8.12402 11.0616 10.8562 0.722578 -0.865485 1.37825
44 1 8.06623 10.995 5.30137 0.729893 -0.401901 1.46088
45 1 8.14995 5.27985 10.6909 1.91813 1.29819 2.43533
46 1 4.15118 4.03966 9.53585 -0.291364 -0.49962 -1.30626
47 1 3.92224 9.5987 3.97886 -0.123906 -0.43648 1.00617
48 1 8.34983 5.36116 5.28187 -0.878355 0.881635 -0.856785
49 1 4.0226 6.7098 1.19527 0.543916 1.24622 0.794283
50 1 4.18594 6.86232 6.59981 -1.18781 -1.58885 0.993701
51 1 9.82396 1.24963 1.15329 -0.97052 -0.303615 1.09733
52 1 9.6164 1.16746 6.89394 0.70487 -0.613972 -1.80536
53 1 9.74003 6.84828 1.11711 -1.41452 -1.82997 -0.549092
54 1 9.62521 6.80829 6.74117 0.608079 0.232944 -0.606226
55 1 2.58496 2.61713 2.57911 0.394246 -0.0954499 0.44293
56 1 2.74145 2.5951 8.03502 0.537962 0.499146 0.364506
57 1 2.62479 8.24787 2.539 -0.232867 -0.0537257 -0.454152
58 1 2.77325 8.10011 8.08175 -0.0774154 0.919544 -0.178125
59 1 8.26579 2.43984 2.68116 0.377646 0.869998 -1.40653
60 1 8.30352 2.61276 8.0801 -0.60211 0.283056 0.255719
61 1 4.04472 1.21416 1.32917 1.29948 0.0806321 -0.0180611
62 1 4.14862 1.11013 6.70006 0.145504 0.2455 0.0715583
63 1 8.39395 8.20497 2.5177 -1.06435 0.195083 0.497723
64 1 8.25881 8.2072 8.19515 0.0721298 -0.0438761 -0.262442
