128
Lattice="10.946 0.000 0.000 0.000 10.947 0.000 0.000 0.000 21.841" Properties=species:S:1:pos:R:3:forces:R:3 energy=-687.75140381 virial="-7.01726818 -2.94946861 4.21867275 -2.94946861 -7.38670778 1.06940711 4.21867275 1.06940711 -4.93842602"
Si     1.40198309     3.89647066     1.42368661    -0.25979549     0.68852580    -0.54260588
Si     5.41185993     8.21392628    21.90720417     0.00258886    -0.35875165    -0.27439156
Si     5.62601917     2.79736221    16.26083233    -0.37386340    -0.13448280     0.41387904
Si     5.48667592     2.78540220    10.94201128     0.10224116    -0.06839398     0.41223863
Si    10.90039786     8.22033444    16.36963055     0.09425154    -0.48939154     0.28650388
Si     0.01216608     8.20353535    21.82016415    -0.10746495    -0.29995120     0.19136474
Si    -0.08234377     2.72158787    16.44784766     0.10350434    -0.21332668    -0.23854135
Si     0.03398483     2.59783285    10.96096756    -0.20948738     0.40096226     0.02103740
Si     6.84358324     6.89380677    20.54390062    -0.23669916     0.17136107    -0.42063019
Si     6.76228066     6.78174750    14.88417628     0.10142291     0.20742726     0.92891622
Si     6.72874232     1.36262706    20.51401155     0.41759109     0.08845459    -0.49453956
Si     6.85811774     1.30437574    14.93315900    -0.13795850     0.16873135    -0.13795851
Si     1.33402262     6.77334958    20.44188783    -0.13621597     0.20228307     0.09410127
Si     1.38963381     6.83838864    15.00906697    -0.00680730     0.04419330    -0.05765145
Si     1.33565557     4.08066489    17.68815315     0.24443504    -0.00296421     0.20965767
Si     1.38658983     1.43501991    20.43193444    -0.22236246    -0.25845739     0.01355317
Si     5.47829787     5.54365127    19.14009257    -0.03503089    -0.39762664     0.14425015
Si     5.60654498     5.42784539    13.42974738    -0.48595244     0.12419313     0.13732080
Si     5.42931848    10.98444019    19.05175859     0.22775984    -0.38269675     0.34114996
Si     5.49070829    -0.19917252    13.61703222    -0.06191629     0.56887984     0.48682761
Si    -0.07259927     5.42711321    19.03219589     0.21465254    -0.00156733     0.48848379
Si     0.02083041     5.42901942    13.71749706     0.09973496    -0.20522192    -0.28921276
Si    10.89366333    10.98736941    19.13682314     0.08603604    -0.21364927     0.07511923
Si    10.88502365    10.88531875    13.72185966    -0.18826625    -0.07875551    -0.01502316
Si     6.86922657     9.56468197    17.80955555    -0.76290417     0.16595683    -0.66432858
Si     6.96238710     9.55836271    12.26082367    -0.13266569    -0.10284210    -0.09459057
Si     6.90342701     4.15555949    17.82741494    -0.33861426    -0.12811655    -0.45579699
Si     7.08570194     4.19275252    12.07183443    -0.68416536    -0.48249897     0.47893715
Si     1.30098251     9.56244304    17.79695845     0.09379567     0.06795662    -0.04218558
Si     1.27393948     1.26008522    15.13550924     0.36935300     0.40101182    -0.40142125
Si     1.31605788     9.64114145    12.25539914     0.39958483    -0.10934291     0.28637204
Si     5.42020648     8.10756319    16.46576072     0.59719390     0.11263315    -0.36849439
Si     8.16761010     5.51411246    16.33084540    -0.24211322    -0.37418669     0.05327917
Si     8.19584621     2.74285874    19.21479636    -0.29939231    -0.01838160    -0.16743752
Si     8.21031813     2.75879827    13.59569344     0.02345347    -0.04176360     0.21977279
Si     2.70741549     8.22640220    19.16471737     0.01750259    -0.61966330    -0.52444059
Si     2.74517377     8.22432525    13.57612668    -0.06903011    -0.07783991     0.38270754
Si     2.80192926     2.76822726    19.05417692    -0.16506627    -0.06231680    -0.04505446
Si     2.80888062     2.55298003    13.72079558    -0.36970383     0.27866405    -0.02690911
Si     9.48150430     6.77959796    17.72489379     0.52540362     0.61100602    -0.05119906
Si     9.62209927     6.82279231    12.33921665     0.23352303    -0.00022263    -0.28808513
Si     9.48577622     1.38912523    17.81252511     0.07943629    -0.21835922    -0.25364643
Si     9.49474237     1.28417595    12.34287261     0.76918781     0.28680560    -0.18801396
Si     4.05338621     6.72901419    17.72024319    -0.30790582     0.36251450     0.28467375
Si     4.17175811     6.89627425    12.21014722    -0.14556092    -0.37095910     0.45424551
Si     4.21660706     1.39972908    17.62116775    -0.63280869     0.16616568     0.18748683
Si     4.04413927     4.18658629    20.51371806     0.37358898    -0.27313530    -0.22895290
Si     4.25173965     4.08181846    14.81236952    -0.42623118    -0.10292248     0.65766883
Si     8.46380274     5.53125659    10.75146713    -0.75645816     0.11561350     0.20854959
Si     8.13080022     0.00309488    16.37596932     0.30263472    -0.10355739     0.31625420
Si     8.28575878    10.95571314    10.84589059    -0.25888669    -0.35313249     0.34716165
Si     2.74524547     5.34905225    16.27043572     0.19968735     0.32747084     0.06553896
Si     2.74773632     5.41051768    11.08774634    -0.18840210     0.18723600    -0.77396703
Si     2.69838411    10.88988592    16.43506582     0.29334524     0.06265000     0.03184159
Si     2.72307546     0.06516946    10.88004591    -0.30402303     0.06894366     0.45517284
Si     9.55912241     9.52927885    20.51348960    -0.01634201     0.36348784    -0.40563613
Si     9.43576064     9.48841770    15.07495903     0.50476980     0.37785259    -0.29068503
Si     9.52978737     4.11656726    20.54914792     0.06180258     0.22851497    -0.21667603
Si     9.53859252     4.09482874    15.06981201     0.10421370    -0.07560547    -0.34473625
Si     4.15294702     9.51112230    20.46317814    -0.45507249     0.57020688    -0.14348884
Si     4.08559586     9.45580799    15.13934339    -0.09698891     0.41082704    -0.74899018
Si     4.18573653     1.28088755    12.31833745    -0.16541569     0.14399797    -0.19961135
Si     1.41920638     3.93257457    12.36832404    -0.22075570     0.36288416     0.09717523
Si     8.22000265     8.30001140     8.23192146    -0.03587126    -0.27178922    -0.48336923
Si     8.18128013     8.26951210     2.62109713     0.25871491    -0.31940192     0.52938998
Si    10.97226698     8.21679139     5.41870317    -0.20039392    -0.27707607     0.25862509
Si     0.00822543     8.23756790    10.94494102    -0.20969374    -0.09048186     0.01128658
Si     0.05709976     2.85046462     5.42060055    -0.05224961    -0.28195029     0.22573203
Si    -0.09250556     2.68676178     0.00740914     0.44133154    -0.00716408     0.02240030
Si     6.85527571     6.87024964     9.46766656     0.49478775    -0.31190461     0.42762989
Si     6.79920833     6.93938548     4.04785217     0.19059972     0.16344959     0.39472395
Si     6.80839700     1.38358396     9.70109146     0.25969157     0.14155066    -0.90771323
Si     6.89968198     1.22926850     4.09971149     0.03388321     0.89093941     0.01928021
Si     1.34225297     6.83630092     9.65415445     0.37466407    -0.41396779    -0.03082751
Si     1.43932202     6.72515852     4.20063531    -0.13967684     0.41616642    -0.42465612
Si     1.31783597     1.38867561     9.42792598     0.57273954    -0.10215047     0.55848461
Si     1.38640635     1.33439289     4.13550053    -0.24760865     0.27492446    -0.27632934
Si     5.47197584     2.64574847     5.35653859     0.09829319     0.27813101     0.39175999
Si     5.43185800     5.49151714     8.21741770     0.11675185     0.01178078    -0.10476298
Si     5.40774686    11.07824634     8.27900526     0.41841456    -0.64520478     0.12378608
Si     5.41344449     0.14492470     2.72230825     0.18371657    -1.33841205    -0.25959936
Si     0.11416628     5.42976965     8.14243442    -0.33543223     0.29790607     0.24935547
Si     0.10282624     5.36710636     2.69120607    -0.27401245     0.29282057     0.59689736
Si    10.93572537    11.00604371     8.08366027    -0.16775422    -0.03522554     0.17056042
Si    10.85976946    11.04709296     2.72912365     0.24890035    -0.45369524    -0.02810592
Si     6.82293838     9.70583859     6.92859692    -0.08144670    -0.26752943    -0.14109851
Si     6.78807852     9.59309604     1.28967442    -0.23332390     0.28414518     0.68484962
Si     6.73897854     4.12418402     6.75457016     0.41003853     0.14703038     0.15911897
Si     6.83968798     4.16298285     1.43308298     0.03727209    -0.42952204    -0.22877321
Si     1.34015855     9.59276352     6.81807503     0.16834354    -0.37186506     0.33751470
Si     1.28212666     9.64878977     1.33714692     0.14063141    -0.21646872     0.18990090
Si     1.54506794     4.12469259     6.80009477    -0.25226325     0.21380177    -0.07867483
Si     5.48473938     5.54304573     2.71547995    -0.44607788    -0.23686209     0.26620907
Si     5.61271031     8.18329400    10.93724854    -0.47975847     0.38932079    -0.28366295
Si     5.48796422     2.79054202    21.83460440    -0.21687604     0.31893894     0.06202968
Si     5.46427188     8.38241551     5.48200833     0.17126760    -0.34495628    -0.01790938
Si     8.08671802     2.76191114     8.20746971     0.35047531     0.22241518     0.05432175
Si     8.19694822     5.60168093     5.46140742    -0.26140231    -0.55150783    -0.13653116
Si     8.25702267     2.72259200     2.76193570    -0.77824783     0.07977998     0.00970519
Si     2.70268596     8.31767300     8.44737820    -0.04805926    -0.12101380    -0.99781615
Si     2.61867584     8.21886566     2.72874756     0.13883515    -0.06991380     0.06261045
Si     2.81430130     2.73488556     8.19017634    -0.19862457     0.05533141     0.05838730
Si     2.80886362     2.62178257     2.72920363     0.02031999    -0.05308344     0.02753922
Si     9.56455657     6.87987242     6.86970901     0.39729348     0.01020037    -0.16784935
Si     9.64903720     6.79198093     1.40910436    -0.28699172     0.31969368    -0.30171093
Si     9.57796297     1.55878838     6.85881978    -0.03616124    -0.66332924    -0.44716990
Si     9.43040630     1.35005151     1.34187662     0.46663415    -0.11793052    -0.22156453
Si     4.18683211     7.11653676     7.01911897    -0.25870764    -0.71992493    -0.41303569
Si     3.99956998     6.84134606     1.40163971     0.22513998     0.08173961    -0.08435972
Si     4.13030876     1.36007192     6.83407712    -0.37795973     0.01440003    -0.48582757
Si     4.15228187     1.31696709     1.18193310    -0.56745303     0.32759458     0.65124571
Si     8.13676805     5.53120266     0.04583456     0.63937736    -0.27294093     0.11002894
Si     4.11213920     4.07985118     4.06193910     0.33340126     0.27489913     0.09344938
Si     8.24742366    -0.02721960     5.55447323     0.19535106     0.39448482    -0.27921337
Si     8.10171123    10.89157469    -0.07780860     0.41454083     0.31116468     0.26948747
Si     3.00349757     5.57357587     5.58974475    -0.72801238    -0.22419578    -0.30770636
Si     2.64405022     5.45616883     0.06597873     0.07203355    -0.18800169    -0.12067731
Si     2.69275874    10.86273386     5.44974334     0.41150999     0.56321621     0.21374628
Si     2.67994261    -0.05411581    -0.09479442     0.27672547     0.20772922     0.11252984
Si     9.66112486     9.59422992     9.48447891    -0.09130966     0.19855127     0.36235374
Si     9.55969883     9.58054825     4.06527891     0.01327323     0.02717998     0.11180091
Si     9.70003910     4.00695414     9.51553053    -0.05940263     0.12573229    -0.22743703
Si     9.54036417     4.13619184     4.07502099     0.34155715     0.26717710     0.24918510
Si     4.13093617     9.64603455     9.70275148     0.35233399    -0.19860245    -0.37796539
Si     4.03557812     9.57240419     4.03338525     0.28268531     0.30896965     0.02656668
Si     4.10067821     4.10100216     9.62496353    -0.03281974     0.23456509    -0.17358856
Si     8.17130555     8.11374496    13.65323640     0.30037504     0.31930846    -0.13958269
Si     8.20997460     8.24540388    19.06835479     0.10331947    -0.58629489     0.67868567
128
Lattice="10.894 0.000 0.000 0.000 10.775 0.000 0.000 0.000 22.461" Properties=species:S:1:pos:R:3:forces:R:3 energy=-679.65014648 virial="-0.89078403 8.01198769 -6.17514229 8.01198769 10.66067505 -3.56330347 -6.17514229 -3.56330347 -34.78289795"
Si     1.26767162     3.95019619     1.30896981     0.31351042    -0.02549072     1.11555731
Si     5.17291267     8.02055449    22.46415716     0.49805412     0.68130076    -0.06293753
Si     5.50482390     2.70993895    16.77559493    -0.19760539    -0.82958066    -0.56121409
Si     5.50799596     2.68719828    11.45259328     0.06970134     0.01823336    -1.77219486
Si    10.99873825     7.88370769    16.88136697    -0.53775918     0.76536387    -0.28122669
Si    -0.09259116     8.05216711    22.47928436    -0.11947790     0.65594435    -0.21088700
Si    -0.19362110     2.51671574    16.87262544     0.76625478     0.61984897    -0.00925015
Si     0.05409517     2.67769939    11.25941263     0.56342161    -0.16319814    -0.52884644
Si     6.66714984     6.77169800    21.14535284     0.53206664    -0.73363036     0.40708590
Si     6.76724785     6.63787906    15.50046950     0.61821556    -0.35554057    -1.38440931
Si     6.66392963     1.43075589    20.94312487     0.06163824    -0.00895706     0.98671818
Si     6.86882189     1.33537856    15.30328769     0.10024185    -0.26482725     1.07194018
Si     1.14689890     6.63976366    21.11064483     0.97393394     0.18998137    -0.13335149
Si     1.38290192     6.65104752    15.33674566    -0.26836640    -0.48811927     0.45274216
Si     1.38299390     4.00359207    18.15590346    -0.64373988     0.03715236    -0.22323386
Si     1.24201522     1.35510533    20.85905057     0.82638437     0.15029445     0.75785780
Si     5.42234475     5.31805568    19.73192034     0.33096892     1.05180001    -1.05747533
Si     5.50379907     5.30136178    13.78789494     0.40895963    -0.18782924     1.17692757
Si     5.37517742    10.70096918    19.67658369    -0.79745972     0.78603953    -0.72611481
Si     5.45030928    -0.05929303    14.14277337     0.90757018    -0.39531094    -1.32730293
Si    -0.03932493     5.30221622    19.71543941    -0.20541614     0.07839434    -1.13409591
Si     0.09709091     5.11156470    13.99379915    -0.66120470     1.31952727     0.85543323
Si    10.84614049    10.73628242    19.67813464    -0.51828480     0.15317447    -1.15000522
Si    10.72189374    10.56551093    14.20131950     1.75084043     1.18717134    -0.53348833
Si     6.49944620     9.37227149    18.15045731     1.90412736    -0.08935031     1.09005451
Si     6.92694927     9.21313462    12.57523853    -0.45218539     1.07205939     0.69149995
Si     6.63382600     4.03849564    18.16885363     0.59361470     0.27157480     0.84448653
Si     7.07177291     3.99911647    12.49724690    -0.21237117     0.60200393     0.27682525
Si     1.26274849     9.33777453    18.33637318     0.40251699    -0.05158389    -0.69243306
Si     1.33923729     1.23880035    15.52037175    -0.71434951    -0.72300333     0.50350189
Si     1.45720656     9.45917435    12.89513577    -1.07092857    -0.37069768    -0.73485839
Si     5.44269653     7.92512971    16.79963642    -1.78620708     0.19543234    -0.04123171
Si     8.06290199     5.20778785    16.83382451     1.00696254     0.95906848    -0.11500186
Si     8.01279917     2.85864510    19.63885990     0.32142639    -0.66855901     0.07592119
Si     8.28409375     2.62567100    13.94999501    -0.07234199    -0.48987621    -0.47116715
Si     2.55774821     7.77454515    19.48736445    -0.55746269     1.41344166     1.56937814
Si     2.73300557     8.03433184    14.12631149     0.13622078    -0.49541712    -0.72829723
Si     2.68749428     2.69000026    19.55750635     0.00876461     0.42641413     0.45155495
Si     2.70304444     2.44353495    14.16005407     0.60332477     0.43427667    -0.63411009
Si     9.53463607     6.73655654    18.24766709    -0.66952085    -1.07821345     0.34046939
Si     9.79184590     6.62541845    12.62942080    -0.59731197     0.30901158     0.11939264
Si     9.28596455     1.28125303    18.32069674     0.79240876     0.25330794     0.24504471
Si     9.83026576     1.24509963    12.63173557    -1.89717340    -0.18336768     0.12813169
Si     3.90715508     6.52316676    18.28719693     1.74268734    -0.00154187    -0.99935895
Si     4.04951004     6.70719847    12.68684992     0.17242695     0.21236211    -0.99394369
Si     3.98814006     1.54614175    18.08006572     0.63798940    -1.62193060     0.61773419
Si     4.11533893     4.07943941    20.98731544    -1.90303648    -0.37086695     0.07432154
Si     4.18389049     3.87189643    15.31604814    -0.20088775     0.77200568    -0.28718132
Si     8.47060399     5.46259921    11.07163963     0.54250705    -1.54704165     0.92550993
Si     8.10480609    -0.10914664    16.92807904    -0.53681093    -0.06566119    -0.71915114
Si     8.13549524    10.78848359    11.32794088     0.91306233     0.34414929    -0.92895347
Si     2.83099102     5.33889133    16.61531211    -0.61409092    -0.70290852     0.56903291
Si     2.59093293     5.32603907    11.30591023     1.84647179    -1.20776033     1.00506210
Si     2.74587158    10.64321775    16.92759306    -0.40275598     0.40028119    -0.28691852
Si     2.58703960     0.11779373    11.52098951     1.15762663    -0.97853327    -1.39582026
Si     9.46238563     9.54054000    20.97784948    -0.43881428    -1.12037897     1.10383415
Si     9.52571802     9.29640722    15.53671225    -0.64312673    -0.71939731     0.83356905
Si     9.45647971     4.13174386    21.10892519     0.22381668    -1.07540727    -0.12872955
Si     9.49482104     3.92038248    15.35268961     0.23484465     0.24945730     0.90661299
Si     3.84562767     9.38620405    20.85918118     0.34348649    -0.49465191     0.75733173
Si     3.99597992     9.45531863    15.29419741     0.68226802    -0.62868202     1.95131135
Si     4.18061018     1.21198101    12.67853370     0.02417067     0.67047238     0.58807749
Si     1.39036933     3.80508962    12.78727144     0.76297677     0.05419234    -1.11412203
Si     8.28108482     8.14408871     8.21712988     0.34484732    -0.04299876     1.20813107
Si     8.21327191     8.09054396     2.90918059    -0.44467169     0.34626466    -0.70464051
Si    10.93073525     7.97999499     5.63117707     0.48364010     0.70976669    -0.35344812
Si     0.09686546     8.15645398    11.31724411     0.25110775     0.08987761    -0.45431581
Si     0.13933120     2.86574893     5.70186829     0.06229910     0.15903698    -0.77048707
Si    -0.01172523     2.56439771    -0.09215937    -0.53555501     0.82935059     0.06618831
Si     7.15014067     6.72565024     9.87205992    -1.65979910     1.40534008    -1.21562445
Si     6.77314157     7.08523209     4.36337738    -0.19533622    -1.62312245    -0.68343431
Si     6.95107522     1.54632316     9.67479166    -0.66622460    -0.72715914     1.67938673
Si     6.80493149     1.49080286     4.24061738    -0.52135074    -1.44833207    -0.35385352
Si     1.45159974     6.62180769    10.00541509    -0.75365806     2.12384176    -1.39199018
Si     1.47335835     6.75792568     4.16740547    -0.40622532    -0.04898652     0.85257131
Si     1.51404926     1.37429631     9.91201510    -0.78661704     0.19733052    -0.71883762
Si     1.20028024     1.42494762     4.09445171     0.52940083    -0.39651152     0.76119781
Si     5.56729058     2.77620915     5.72358591    -0.46291170    -0.24246080    -0.34582886
Si     5.59350814     5.54796036     8.45293318    -0.56551993    -0.15797447     0.56700861
Si     5.54840153    10.83958681     8.53662355    -0.62876266     0.77469200    -0.62075436
Si     5.37003602    -0.21440009     2.69608783    -0.51539922     2.45144892     1.16276073
Si     0.18729333     5.44046934     8.42766110     0.22165672     0.26519749    -0.49668029
Si     0.03742088     5.41048493     3.01137735    -0.09895375    -0.25444463    -1.53636861
Si    10.93511652    10.98409804     8.28797600     0.32476294    -0.58074784     0.71347153
Si    10.84597432    10.65636508     2.76308560    -0.33024871     0.90713060     0.20459130
Si     6.82696338     9.60138812     7.10789755     0.82800996     0.16531314    -0.63721937
Si     6.70457804     9.31855448     1.46981993     0.86952561    -0.34980464    -1.46554303
Si     6.80008754     4.23029807     7.00174766    -0.20673883    -0.13424450     0.14305854
Si     6.70764688     4.12922962     1.43699768     0.37005436     0.57959491     0.28928560
Si     1.34092805     9.36274032     7.06866033     0.28638476     0.84373856    -0.25156966
Si     1.28189404     9.39817436     1.41302275     0.18798964     0.21716693    -0.90759486
Si     1.61409030     4.26104434     6.95787400    -0.63896137    -0.81221139     0.53921992
Si     5.33563369     5.54310416     2.93252209     0.88081551     0.26263842    -0.56504178
Si     5.50803018     8.08085715    11.13670212     0.53097510    -1.27396870     0.86584228
Si     5.33236530     2.94623053    22.44004750     0.40829009    -2.16175699     0.80474424
Si     5.48756314     8.38778814     5.70253189    -0.75255859    -0.40092814     0.11547962
Si     8.12053087     2.98232710     8.34712003     1.42744124    -0.99699235    -0.26296729
Si     8.02311067     5.43265619     5.52415520     0.85318470     0.98833472     0.52365208
Si     8.03835574     2.74228301     2.81734333     1.38344502     0.39653510    -0.34169656
Si     2.80784753     8.20911962     8.54278196    -0.31303948    -0.62550670     0.17654395
Si     2.60219679     8.18268549     2.83858493     0.67826605     0.00883022    -0.22994143
Si     2.76442778     2.74858649     8.39897196     0.46369302     0.10425962     0.25481015
Si     2.75687318     2.60040290     2.85916657    -0.72648704     1.67615139     0.29335588
Si     9.66441968     6.66743637     6.97039569    -0.90199101    -0.07578395     0.15965316
Si     9.56075345     6.77795523     1.51109715     0.32089484    -0.19227852     0.53260326
Si     9.61814062     1.51752579     6.84446897    -0.55824256     0.20301738     1.25318170
Si     9.53406607     1.29631444     1.32276500    -0.69832712     0.22382292     0.65046084
Si     4.18216697     6.93039587     7.09785984     0.01482976    -0.15565187    -0.18678303
Si     3.85902292     6.74029263     1.47210209     0.19300114    -0.39502347    -0.31142259
Si     4.04805792     1.41533682     6.89732776     0.73836899    -0.08394738     1.18575716
Si     3.88429802     1.33397331     1.45381423     1.69920623    -0.61241567    -1.45201850
Si     8.33393050     5.45061431     0.14436215    -1.89062095    -0.03616133    -0.37167972
Si     4.26724288     4.06473198     4.31085091    -1.16459990    -0.27578700    -0.42122704
Si     8.27435202     0.15704142     5.56646480    -0.55492955    -0.60630792    -0.00174677
Si     8.05636078    10.83113137    -0.05250784    -0.35221052    -0.28999722     0.15727970
Si     2.89755286     5.54043993     5.56803792     0.37207353     0.12709410     0.21966955
Si     2.59985576     5.27234054    -0.07905780     0.24279407     0.60705352     0.43657351
Si     2.66392042    10.90584447     5.61413019    -0.69831300    -0.51294428    -0.27749828
Si     2.59142171     0.03756857    -0.13662454    -0.03916925    -0.23935254     0.38412815
Si     9.62248426     9.58415447     9.73217473    -0.28067133    -0.45977825     0.39166608
Si     9.56649630     9.36501659     4.24313536     0.01581879     0.59721076     0.33031958
Si     9.83278093     3.99689324     9.63059903    -1.13626432     0.16068238     0.94656754
Si     9.56789080     4.16897375     4.39261418    -0.48544815    -0.85424316    -1.00086665
Si     4.26797968     9.47274116     9.90937141    -1.45509219     0.93452501     0.08877464
Si     3.97724137     9.52484395     4.24660322     0.19538040    -0.18819374     0.04202662
Si     4.15576064     4.05502825     9.86396759     0.06076222     0.17333251     0.22739038
Si     8.32207438     7.96127244    14.00210365    -0.47840041    -0.46018952     0.38345265
Si     8.14246324     7.95431883    19.82327505    -0.39239466     0.99120522    -1.40533173
128
Lattice="10.908 0.000 0.000 0.000 10.864 0.000 0.000 0.000 22.020" Properties=species:S:1:pos:R:3:forces:R:3 energy=-686.65698242 virial="5.24268675 -4.59004688 3.58938956 -4.59004688 10.07199860 -0.22323513 3.58938956 -0.22323513 -5.11851883"
Si     1.24647580     4.13996360     1.43104128     0.12250154    -0.29030079    -0.89157414
Si     5.23607451     8.15250833    21.94912801     0.54948246    -0.21738040     0.27746865
Si     5.36525577     2.53327002    16.43193054     0.35736859     0.52776659     0.42624587
Si     5.56222364     2.72030098    10.90848793     0.05947999    -0.02736405     1.12756443
Si    10.88908296     7.94437721    16.54799608    -0.00743738    -0.20424713     0.10863726
Si    -0.15974819     8.19890154    22.01274265     0.34802747    -0.55868578     0.13380235
Si    -0.03436046     2.60614606    16.53553380    -0.40784839    -0.39376056    -0.15506101
Si     0.12832161     2.70081064    10.92626035    -0.33963418    -0.17562079     0.52089357
Si     6.71747152     6.71450966    20.73837237    -0.40376568     0.60726839    -0.80291879
Si     6.91080443     6.64836296    15.04273886    -0.43422830     0.32470882     1.00599349
Si     6.66230988     1.40078642    20.67584757     0.01156054    -0.47311616    -0.52561271
Si     6.92990700     1.26852556    15.20072175    -0.57137382     0.07158926    -0.77381182
Si     1.21182212     6.72481577    20.69994683    -0.27773431    -0.01643326    -0.19068988
Si     1.35287518     6.58217575    15.14284231     0.20195121     0.60750812     0.01787111
Si     1.22618896     4.03384407    17.75567427     0.40740967    -0.25684434     0.88833451
Si     1.27760274     1.32092737    20.56533010    -0.56499559    -0.04572495     0.05982164
Si     5.39236958     5.42568711    19.22519009    -0.11072850    -0.58388048     0.46982977
Si     5.51898290     5.32199047    13.81380664    -0.16545284     0.03880293    -0.78764760
Si     5.24369151    10.84194635    19.23906593     1.04839945    -0.83442807     0.83322132
Si     5.60228297    -0.06971819    13.71972404    -0.66415393     0.19604602     0.78533226
Si    -0.05387953     5.33543158    19.19245391    -0.15775739     0.00838016     0.81343579
Si     0.01422727     5.30882896    13.78040018     0.32835212    -0.41091314    -0.42016670
Si    10.75511129    10.75766197    19.13874366     0.28728786     0.03311013     0.76103938
Si    10.97909227    10.78055975    13.87802543    -1.02825570    -0.59288943    -0.49237108
Si     6.71313502     9.37918286    17.94126075    -1.05123019     0.53508198    -0.79396868
Si     6.90018122     9.45114012    12.42208672     0.46603739    -0.46598339    -0.56457615
Si     6.70350976     4.04843321    17.82017919     0.13473372    -0.27529848    -0.04936536
Si     6.92136910     4.03223967    12.42232283     0.01969058    -0.35208887    -0.33594003
Si     1.33007229     9.39072872    17.78584052    -0.46841902    -0.12791030     0.82211304
Si     1.31159884     1.20563769    15.24155227     0.55742341     0.81982350    -0.39653212
Si     1.37421822     9.40390946    12.50445761     0.76821071     0.43880063    -0.06476875
Si     5.30224089     8.02551297    16.40132512     1.64860249    -0.17074805     0.50964934
Si     8.25692582     5.34650499    16.51421659    -0.85969210    -0.41252446    -0.29578823
Si     8.05057387     2.70523776    19.23689144    -0.06462732    -0.15431154     0.13731082
Si     8.28983822     2.53601668    13.67491300    -0.37350237     0.53450811     0.62385422
Si     2.53756618     7.98899296    19.29236632     0.56928825     0.05379062    -0.85078073
Si     2.78596491     7.97339701    13.79959090    -0.11156459     0.32561761     0.04013904
Si     2.57567467     2.71777491    19.20485208     0.23296861    -0.41813016    -0.19214961
Si     2.74513537     2.58059151    13.79035441    -0.23536642    -0.00835321     0.08330172
Si     9.43583596     6.64199474    17.95804687     0.20990689     0.84036160    -0.18320379
Si     9.73444965     6.74117048    12.35888731    -0.33448231     0.01239160     0.00423048
Si     9.39537410     1.31812329    17.87401275     0.02207200    -0.28342029    -0.10578565
Si     9.63604849     1.24641215    12.32751064     0.67870367     0.23787235     0.23982066
Si     4.09745880     6.66723231    17.77683989    -1.10601759     0.15788466     0.67171103
Si     4.15680079     6.67508747    12.34440227     0.25156415     0.10940249     0.68507874
Si     4.00584246     1.23205140    17.89926524    -0.61477160     0.97829139    -0.58201730
Si     3.89769977     4.01613471    20.60603093     0.87459373     0.21241625     0.26733404
Si     4.09491299     3.98576433    15.05286391    -0.04606973    -0.30279309     0.53196466
Si     8.37289900     5.31132483    11.06164962    -0.60439920     1.05754507    -0.31605768
Si     8.06524806    -0.18353106    16.52759862     0.63191837     0.04222794     0.46088931
Si     8.25836483    10.89155705    10.96092911    -0.33338976    -0.51920819     0.42885941
Si     2.68551512     5.23452641    16.49157041     0.50434005     0.49833655    -0.25137377
Si     2.86269397     5.30625933    11.04887538    -0.60851067     0.86599827    -0.58956659
Si     2.67704810    10.74855582    16.51671459     0.38651943    -0.08153693     0.05208263
Si     2.82118884    -0.07439243    11.12428427    -0.37639356     0.62492025     0.09153488
Si     9.33729836     9.46526747    20.69668370     0.23762988     0.39025143    -0.75580120
Si     9.53510105     9.30127548    15.28186255     0.05005509     0.63595396    -0.82396817
Si     9.44059636     4.00395523    20.61283284    -0.17953062     0.56770921     0.15673716