ITEM: TIMESTEP
1000
ITEM: NUMBER OF ATOMS
64
ITEM: BOX BOUNDS xy xz yz pp pp pp
-3.1140387182500001e-01 1.1087275714303001e+01 -1.5890782108999999e-02
0.0000000000000000e+00 1.1635512432473000e+01 -2.9551308971599999e-01
0.0000000000000000e+00 1.1127300537966001e+01 2.9068760474299998e-01
ITEM: ATOMS id type x y z fx fy fz
1 1 1.20508 4.2133 1.12634 0.891542 -0.954864 1.0469
2 1 1.22711 9.92793 6.81565 -0.589919 0.509911 -0.481099
3 1 6.97124 4.22388 1.25822 -0.00973088 0.00817034 -0.288435
4 1 6.72933 4.06773 6.76357 -0.20606 1.1645 -0.290692
5 1 6.69741 9.70229 1.11975 0.881468 -0.302802 1.00383
6 1 6.65976 9.89094 6.7418 0.111426 -0.39175 0.806708
7 1 10.9883 11.3733 2.71701 -0.366926 -1.23132 -0.893302
8 1 10.8317 11.3645 8.17153 0.25589 -0.11891 0.308332
9 1 11.048 5.63571 2.73533 0.0457388 -0.0372022 -0.811005
10 1 10.9411 5.77545 8.16413 -1.29878 0.442298 0.303623
11 1 5.49194 11.2053 2.56946 -0.471126 0.0575893 -0.00873459
12 1 5.32493 11.2893 8.25575 -0.257549 0.205166 -0.0171074
13 1 5.49581 5.52012 2.76047 -1.01751 -1.11897 -0.9341
14 1 1.07572 4.26105 7.03131 1.47212 -0.845659 -2.39331
15 1 1.3229 9.82611 1.30467 -0.360749 -0.0633399 0.321938
16 1 5.27793 5.53561 8.11916 0.761572 0.650074 0.457957
17 1 1.22713 7.17922 4.07628 1.06589 -1.56545 0.103456
18 1 1.14812 7.15593 9.57535 0.0807843 0.343291 0.0499409
19 1 6.83527 1.38809 3.86894 -0.0103185 -0.503696 0.114313
20 1 6.67826 1.44073 9.6969 -0.274476 0.528036 -0.799956
21 1 6.87209 6.92773 3.87359 -0.897291 2.11958 2.30845
22 1 6.5565 7.19385 9.50642 0.452276 -0.600704 -0.620261
23 1 10.8099 2.93071 10.8704 -0.701144 0.22035 0.443382
24 1 10.9428 2.77777 5.43298 0.136752 0.478353 0.170295
25 1 10.8544 8.601 10.9795 -0.351668 0.215014 0.0320918
26 1 10.9246 8.55712 5.33665 -0.464625 -0.00441712 1.02969
27 1 5.29954 2.99552 11.1016 0.665413 -0.512606 -0.727388
28 1 5.49848 2.64803 5.29891 -1.46859 0.793878 0.79356
29 1 1.2993 1.41111 3.95619 0.0714302 0.0349706 1.10077
30 1 1.13772 1.39354 9.70619 -0.263341 0.455639 -1.31407
31 1 5.17624 8.41235 10.9844 -0.681665 0.591328 0.0980325
32 1 5.30478 8.40711 5.38344 1.86148 -1.2079 -0.816692
33 1 3.95914 4.13619 4.17022 0.703737 -0.298599 -1.31223
34 1 3.82119 9.96528 9.67503 -0.0161165 -0.354275 -0.645432
35 1 9.63158 4.31839 4.06652 -0.29744 -1.45028 -0.089938
36 1 9.44789 4.45006 9.49697 -0.555908 -0.729579 0.214945
37 1 9.48105 9.97665 4.11135 -0.200504 -0.163422 -1.02061
38 1 9.40709 9.96823 9.5573 0.194623 -0.0737022 0.193762
39 1 2.49141 11.4473 11.0983 -0.0227257 -0.344782 -0.511804
40 1 2.67357 11.3328 5.40981 -0.15426 -0.80279 -0.691879
41 1 2.50027 5.66968 10.8846 -0.146267 0.449494 0.588879
42 1 2.61514 5.5551 5.48012 -1.49583 0.757908 0.185129
43 1 7.9173 11.2748 11.0156 1.20599 1.17347 -0.317185
44 1 7.92655 11.3779 5.43476 1.77151 -0.621726 -0.225932
45 1 8.05242 5.98871 10.8707 -0.212177 -1.67734 0.68516
46 1 3.97554 4.24332 9.64108 -0.847622 -0.058381 -0.851455
47 1 4.08615 9.79146 3.96079 -0.867639 0.944366 0.279441
48 1 8.13356 5.58185 5.41521 -0.0661454 -0.10125 0.0117158
49 1 4.0303 6.7552 1.33401 0.478864 0.4095 -0.724386
50 1 3.94868 7.02584 6.81119 -0.126951 -0.0184343 -0.0745823
51 1 9.62185 1.30582 1.17747 0.0759165 -0.542182 -0.0661205
52 1 9.46105 1.40294 6.76877 0.0799599 -0.0735605 0.112491
53 1 9.67893 6.93797 1.26794 0.117316 0.881287 -0.285037
54 1 9.4898 7.04124 6.69085 0.475437 0.776849 0.478014
55 1 2.66795 2.7309 2.56407 -0.0471454 0.923754 -0.0372124
56 1 2.52824 2.79592 8.20358 0.577774 -0.267677 0.67266
57 1 2.73321 8.30803 2.6002 -0.420082 0.703246 0.189641
58 1 2.52358 8.50259 8.13974 0.537481 0.0839204 0.634543
59 1 8.32394 2.75093 2.61413 0.30283 0.766011 -0.037691
60 1 8.08478 2.82336 8.15466 0.517573 -0.179187 1.1872
61 1 4.13002 1.33753 1.19913 -0.0942466 -0.341469 0.878152
62 1 4.01498 1.36155 6.80051 0.0480046 0.329716 0.269374
63 1 8.22454 8.43923 2.53996 0.258514 0.0894796 0.694121
64 1 8.15303 8.47741 8.15203 -0.836785 0.451088 -0.480855
