ITEM: TIMESTEP
200
ITEM: NUMBER OF ATOMS
64
ITEM: BOX BOUNDS xy xz yz pp pp pp
-3.1140387182500001e-01 1.1087275714303001e+01 -1.5890782108999999e-02
0.0000000000000000e+00 1.1635512432473000e+01 -2.9551308971599999e-01
0.0000000000000000e+00 1.1127300537966001e+01 2.9068760474299998e-01
ITEM: ATOMS id type x y z fx fy fz
1 1 1.29568 4.22047 1.24693 -0.0996724 -0.200259 -0.445931
2 1 1.18337 9.92163 6.84758 0.532714 -0.176811 -0.863089
3 1 6.83125 4.24231 1.29317 -0.328789 -0.783107 -0.619446
4 1 6.73949 4.11579 6.79778 0.796851 0.485725 0.180072
5 1 6.83002 9.79911 1.30855 -0.553873 -0.635059 -1.10001
6 1 6.67419 9.80116 6.77847 -0.219474 0.567326 0.279393
7 1 10.9341 11.244 2.54519 0.923859 0.777042 0.109592
8 1 10.832 11.2204 8.22255 -0.0879991 0.78568 -0.0897643
9 1 10.8676 5.61491 2.56348 0.183565 -0.439405 0.0872177
10 1 10.8894 5.72628 8.21968 0.265012 0.187001 -0.283604
11 1 5.40789 11.2974 2.57289 -0.671073 -1.37308 1.51923
12 1 5.38156 11.3182 8.32766 -0.00337983 -0.63501 -1.00911
13 1 5.52036 5.72538 2.66911 -0.0939298 -1.46356 0.703742
14 1 1.08705 4.16797 6.81993 1.32678 0.553391 0.256984
15 1 1.41893 9.859 1.19729 -0.674161 -1.01536 1.12589
16 1 5.42204 5.58949 8.20987 -1.1861 -0.671041 -0.52642
17 1 1.20914 6.97348 3.87214 0.865469 0.0529099 1.13416
18 1 1.03568 7.29439 9.6537 0.147545 -0.891494 0.344623
19 1 6.96752 1.23998 3.93838 -1.48305 0.571543 0.401931
20 1 6.68958 1.51633 9.6525 -0.324345 0.472337 -0.394891
21 1 7.00554 6.9957 4.09634 -1.9385 1.17076 -0.116246
22 1 6.61699 7.07601 9.49475 0.444884 0.66126 0.441799
23 1 10.7925 3.03144 10.8819 0.490897 -0.285403 0.964179
24 1 11.005 2.79908 5.39756 -1.02398 -1.00104 -0.808514
25 1 10.7175 8.75695 11.069 -0.147492 -0.602234 -0.781974
26 1 10.9995 8.53272 5.253 0.73316 -0.54104 0.945745
27 1 5.22391 2.93513 11.024 -0.318619 0.0849967 0.0513772
28 1 5.49321 2.6523 5.38522 -0.961213 -0.573274 0.465466
29 1 1.34554 1.40217 3.86945 -0.91854 0.0338013 0.910132
30 1 1.02352 1.48704 9.52528 0.483058 -0.706038 0.507991
31 1 5.1883 8.449 10.9499 0.842947 1.4997 0.533471
32 1 5.25486 8.30005 5.44175 1.19912 0.165373 -0.102134
33 1 4.09014 4.18032 4.06666 0.364442 0.212855 -0.237439
34 1 3.85075 9.88546 9.48034 0.802208 0.56705 1.3968
35 1 9.4888 4.1933 4.03867 0.422347 -0.139799 -0.103253
36 1 9.44677 4.33279 9.50238 -0.115814 1.09831 0.696668
37 1 9.60879 9.89503 4.03016 -0.244555 0.726064 -0.163422
38 1 9.24382 10.006 9.51945 0.830924 0.0123583 1.00415
39 1 2.45074 11.3471 10.8614 0.286852 1.03257 0.0661159
40 1 2.61289 11.3917 5.39979 -0.722809 -0.904441 0.303216
41 1 2.51581 5.79724 10.9868 -0.929376 -0.380682 -0.702949
42 1 2.58994 5.53888 5.44962 -0.523595 0.267883 -0.51093
43 1 7.9767 11.5287 11.0125 0.337929 -0.571859 0.476016
44 1 8.13837 11.2556 5.46351 0.376845 -0.30409 -0.127213
45 1 7.9465 5.73772 10.8889 0.6642 0.119067 0.492874
46 1 3.85746 4.26547 9.53906 0.00164548 -0.136982 0.292928
47 1 3.90914 9.86477 4.14257 1.74024 0.377874 -1.39261
48 1 8.23468 5.68211 5.55472 -0.150338 -1.27982 -0.447829
49 1 4.04021 6.87973 1.25596 0.914736 0.564935 -0.0132773
50 1 3.88765 6.92172 6.95096 0.19304 0.341325 -0.979483
51 1 9.62792 1.50009 1.23898 0.500158 -1.49561 -0.676891
52 1 9.56718 1.32928 6.85178 -0.0365606 0.517256 -0.766806
53 1 9.49592 7.02642 1.17854 0.660491 -0.222185 -0.015519
54 1 9.68506 7.15495 6.69935 -0.667277 -0.0824291 0.881485
55 1 2.73447 2.84543 2.55763 -0.216397 -0.185077 0.515207
56 1 2.54814 2.68003 8.13629 -0.185084 1.25141 0.345334
57 1 2.83303 8.32969 2.64767 -1.77977 1.00016 -0.470656
58 1 2.5639 8.449 8.26809 -0.781112 0.0704888 -1.13171
59 1 8.1493 2.71683 2.53363 0.519553 1.01416 1.19024
60 1 8.26164 2.82992 8.26706 -1.65766 -0.683826 -1.16257
61 1 3.94478 1.26389 1.25096 1.14286 0.23131 -0.920799
62 1 3.95955 1.23619 6.90464 1.37863 1.46662 -1.3012
63 1 8.33201 8.48733 2.67125 -1.17474 -0.45613 -0.158764
64 1 8.11285 8.44857 8.13399 -0.153706 -0.104412 -0.199562
