ITEM: TIMESTEP
270
ITEM: NUMBER OF ATOMS
64
ITEM: BOX BOUNDS xy xz yz pp pp pp
-3.1140387182500001e-01 1.1087275714303001e+01 -1.5890782108999999e-02
0.0000000000000000e+00 1.1635512432473000e+01 -2.9551308971599999e-01
0.0000000000000000e+00 1.1127300537966001e+01 2.9068760474299998e-01
ITEM: ATOMS id type x y z fx fy fz
1 1 1.24353 4.09437 1.14482 0.661074 -0.0734499 0.617831
2 1 1.1333 10.0488 6.77841 0.848349 -0.340707 -0.176548
3 1 6.8515 4.12616 1.24164 -0.235001 -0.4272 1.05653
4 1 6.69244 4.32825 6.70109 0.376038 -0.0401329 1.74425
5 1 6.82446 9.67953 1.24167 0.276633 0.0926572 -0.0593186
6 1 6.58903 9.91523 6.80036 -0.0568183 1.07144 0.68676
7 1 10.9994 11.0186 2.59555 -0.486005 0.359062 -0.0478954
8 1 10.8986 11.3122 8.25011 -0.658427 0.304997 -0.0286671
9 1 10.9481 5.48797 2.71419 0.323842 -0.48235 -1.22589
10 1 10.811 5.77905 8.28138 -0.0876667 -0.455574 -0.641417
11 1 5.55121 11.2919 2.48949 -0.633567 -0.577346 1.53684
12 1 5.36841 11.4875 8.36992 -0.695828 -0.959932 -1.35766
13 1 5.53339 5.56265 2.74195 -0.746158 -0.607107 -1.05367
14 1 0.968565 4.20443 6.85006 2.01805 1.09295 0.749976
15 1 1.4301 9.71438 1.20059 -0.0998947 -0.94008 1.90338
16 1 5.38728 5.80649 8.22903 -0.64563 -0.412925 -0.869533
17 1 1.15163 7.01463 3.90422 1.50675 0.259912 1.13904
18 1 1.08993 7.24167 9.57267 0.458238 -0.503332 -0.102252
19 1 6.94131 1.37737 3.99755 -1.09339 0.331228 -0.336535
20 1 6.69522 1.58523 9.73608 0.443038 0.253154 -1.23108
21 1 6.92522 6.86287 4.10912 -1.60551 2.81689 -1.37811
22 1 6.69369 7.22177 9.60161 0.286546 0.155112 -0.447731
23 1 10.733 2.85424 10.8951 0.287762 0.0950069 0.720391
24 1 10.993 2.70034 5.50215 -1.08309 -0.289595 -1.20736
25 1 10.8859 8.56834 11.0615 -0.959419 -0.340564 -0.733974
26 1 11.0333 8.54654 5.38012 -0.38201 -0.768526 -0.123775
27 1 5.21624 3.02746 11.0262 0.402955 -1.08287 0.0637989
28 1 5.45683 2.94804 5.30059 -1.10939 -2.90349 1.35147
29 1 1.1036 1.2302 3.91267 1.56359 1.62582 0.0684627
30 1 1.05617 1.48376 9.57106 0.855876 -0.119227 0.341269
31 1 5.21279 8.53694 10.9675 -0.251438 0.0972967 -0.105719
32 1 5.34108 8.45168 5.33665 1.31136 -0.621365 0.308871
33 1 3.99358 4.23278 4.08581 -0.854228 0.0848597 -0.904478
34 1 3.83352 9.95591 9.55194 0.153321 0.566041 0.448909
35 1 9.56278 4.19263 4.1516 -0.420662 -1.123 -0.987163
36 1 9.42273 4.23748 9.5184 -0.677686 1.11822 0.566711
37 1 9.48993 9.73254 4.08791 -0.886664 1.62677 -0.117097
38 1 9.45606 9.93217 9.58338 -0.0990756 0.380568 0.546202
39 1 2.35144 11.3526 11.0043 1.31034 0.809679 -1.35147
40 1 2.56872 11.4597 5.37786 0.251711 -1.0963 0.0887868
41 1 2.49088 5.71812 10.8283 -0.942902 -0.0440368 0.813241
42 1 2.48925 5.60512 5.49009 0.134841 0.263963 -0.458125
43 1 7.98151 11.3573 10.9939 0.420282 0.0129035 -0.0750219
44 1 8.05399 11.3476 5.56485 1.34894 -1.17772 -1.65838
45 1 7.88453 5.62554 10.954 1.63156 0.685795 -0.905281
46 1 3.99898 4.36205 9.64218 -0.801877 0.352816 -1.47712
47 1 4.07716 9.97911 4.09932 0.033808 0.545224 -1.23915
48 1 8.16887 5.69343 5.49237 1.15834 -0.960482 0.322682
49 1 4.08819 6.73859 1.13034 0.492786 1.46717 1.5544
50 1 3.91533 7.1739 6.77921 -0.207441 -0.713675 0.235571
51 1 9.69259 1.17838 1.22953 -0.207475 -0.268909 -0.277988
52 1 9.54193 1.36737 6.91165 -0.376139 -0.0379117 -0.621582
53 1 9.68099 6.73826 1.1011 -0.29318 0.787854 0.845283
54 1 9.61757 7.14152 6.69733 -1.24589 0.871503 1.67651
55 1 2.72455 2.70026 2.56625 -0.587417 -0.690547 0.16603
56 1 2.54414 2.96506 8.30072 0.00687747 -0.851177 -1.04133
57 1 2.92217 8.33029 2.73749 -1.65089 -0.0279636 -1.74899
58 1 2.46602 8.57949 8.13694 0.537521 0.0731449 -0.0360055
59 1 8.29763 2.69366 2.49355 0.471304 0.479249 1.65057
60 1 8.14164 2.88579 8.09546 -1.28238 -0.460834 0.742573
61 1 4.10639 1.19176 1.04738 -0.378558 0.842152 1.5457
62 1 3.91679 1.4062 6.8346 1.36672 2.14876 -0.354405
63 1 8.27013 8.24121 2.50965 -0.0232019 -0.134084 0.852456
64 1 8.07899 8.68202 8.1059 0.82645 -2.13978 0.0362402
