ITEM: TIMESTEP
380
ITEM: NUMBER OF ATOMS
64
ITEM: BOX BOUNDS xy xz yz pp pp pp
-3.1140387182500001e-01 1.1087275714303001e+01 -1.5890782108999999e-02
0.0000000000000000e+00 1.1635512432473000e+01 -2.9551308971599999e-01
0.0000000000000000e+00 1.1127300537966001e+01 2.9068760474299998e-01
ITEM: ATOMS id type x y z fx fy fz
1 1 1.3507 3.96456 1.08048 -1.18762 1.05727 0.154651
2 1 1.13986 9.97298 6.73472 1.24967 0.880161 -0.0219551
3 1 7.00273 4.13319 1.27636 -1.03291 -0.677354 0.299571
4 1 6.86991 4.30932 6.79021 -1.10129 0.231739 0.202735
5 1 6.85409 9.64943 1.23597 -0.320323 0.714337 -0.672035
6 1 6.80749 10.1078 6.94885 -1.70977 -1.63652 -1.89106
7 1 11.0484 11.1468 2.63039 0.117689 0.312451 -0.691394
8 1 10.9324 11.3159 8.15935 -0.851158 0.447613 0.398971
9 1 11.0401 5.37808 2.61933 0.394915 1.18053 -0.306674
10 1 10.7424 5.75052 8.20619 1.04922 -0.59032 -0.289822
11 1 5.46933 11.252 2.55787 0.420291 -0.587694 0.180319
12 1 5.20175 11.4527 8.20834 0.494902 0.0610577 0.25666
13 1 5.50826 5.49385 2.65322 -0.368429 -0.331721 0.044555
14 1 1.1037 4.22158 6.83488 -0.0695437 -0.0333347 0.793064
15 1 1.34718 9.72398 1.18859 0.21403 -0.57218 0.865124
16 1 5.23756 5.75093 8.08183 0.791212 -0.499997 -0.418622
17 1 1.23228 7.07094 4.0358 -0.310322 -1.04476 0.084648
18 1 1.14979 7.21334 9.42419 0.164923 -0.863807 1.68907
19 1 6.84247 1.32603 3.96311 -1.27706 0.808656 0.704446
20 1 6.643 1.47516 9.61631 -0.476156 0.274219 0.0283211
21 1 6.72349 6.9148 4.1011 -0.230123 1.26015 0.047358
22 1 6.62848 7.07143 9.44642 0.245175 0.782793 0.861162
23 1 10.714 2.77781 10.8416 0.158715 0.499919 0.982959
24 1 10.8136 2.6996 5.50432 1.37727 -0.323504 -0.347527
25 1 10.8024 8.5022 10.9677 0.0681426 0.0357012 0.241957
26 1 10.9169 8.58497 5.4719 0.356275 -0.971628 -1.36391
27 1 5.29106 3.04919 10.9779 0.0861447 -0.443813 -0.143965
28 1 5.45211 2.91867 5.41113 -0.252132 -1.37951 -0.190924
29 1 1.25685 1.25936 4.05868 -0.285792 1.21438 -0.368088
30 1 1.13917 1.38371 9.63226 -0.189789 -0.147873 0.0288478
31 1 5.2035 8.51063 10.8484 0.427214 0.0630853 0.808807
32 1 5.29325 8.54703 5.41221 2.46477 0.214726 0.916304
33 1 3.94289 4.13664 3.96769 -0.0985784 0.413783 0.321227
34 1 3.84619 10.0216 9.63139 -0.0223786 0.127662 -0.375051
35 1 9.63487 4.10309 4.05039 -0.507129 0.502492 0.00789848
36 1 9.37418 4.27195 9.53732 0.132421 0.577448 0.702744
37 1 9.6438 9.78821 3.87698 -1.58968 0.389995 1.25259
38 1 9.50895 9.96033 9.61133 0.0256322 0.500011 0.323176
39 1 2.52165 11.4309 11.134 -0.190638 -0.108785 -1.25199
40 1 2.73416 11.365 5.39352 -0.28179 -0.871805 -0.195308
41 1 2.52268 5.77991 11.044 -0.610644 0.415163 -1.32711
42 1 2.57473 5.59661 5.52213 -0.0371117 0.0453832 -1.37692
43 1 7.97997 11.3538 10.9132 0.218662 -0.0713809 0.917205
44 1 8.15673 11.319 5.28769 0.739653 -1.08726 0.638621
45 1 7.951 5.73106 10.9872 0.886807 0.336504 -0.866496
46 1 3.89233 4.4009 9.51711 0.0436371 0.00423713 0.931051
47 1 4.06046 9.78543 3.89144 -0.374509 1.85276 0.980499
48 1 8.2478 5.70774 5.36688 0.497256 -0.658868 0.567312
49 1 4.17018 6.92016 1.32095 -0.089059 -0.277121 -0.968353
50 1 3.87088 7.21694 6.73258 0.100342 -0.600381 0.50015
51 1 9.60575 1.19083 1.25984 0.379601 -0.132435 -0.392433
52 1 9.36065 1.35857 6.88978 1.25876 -0.201405 -0.643931
53 1 9.5548 6.9069 1.28201 0.81301 -0.427109 -0.0736225
54 1 9.5788 7.22893 6.79667 -1.43593 -0.346424 0.339318
55 1 2.61124 2.66058 2.45672 0.566291 -0.340162 2.09603
56 1 2.49331 2.85288 8.4137 -0.238374 0.693183 -1.58847
57 1 2.79802 8.2986 2.65132 -1.42227 0.322041 -0.540609
58 1 2.51979 8.66446 8.11181 0.15512 -0.411958 0.497909
59 1 8.29622 2.65419 2.68182 0.0063417 0.398473 -0.659243
60 1 8.09071 2.79915 8.23282 -0.674878 0.415464 -0.258734
61 1 4.15931 1.34792 1.23081 0.0878576 -0.142355 -0.153226
62 1 3.87583 1.60119 6.88952 0.849094 -0.25712 -0.776368
63 1 8.11099 8.29526 2.68505 0.809991 0.080369 -0.161902
64 1 8.14101 8.62921 8.32106 -0.415654 -1.07517 -1.34952
