ITEM: TIMESTEP
410
ITEM: NUMBER OF ATOMS
64
ITEM: BOX BOUNDS xy xz yz pp pp pp
-3.1140387182500001e-01 1.1087275714303001e+01 -1.5890782108999999e-02
0.0000000000000000e+00 1.1635512432473000e+01 -2.9551308971599999e-01
0.0000000000000000e+00 1.1127300537966001e+01 2.9068760474299998e-01
ITEM: ATOMS id type x y z fx fy fz
1 1 1.35212 4.12387 1.27518 -0.279217 0.156085 -0.219642
2 1 1.2623 9.9308 6.80813 -0.131438 0.290914 -0.511898
3 1 6.79468 4.14379 1.19132 0.106457 -0.11676 1.28413
4 1 6.68103 4.19158 6.79359 1.1364 0.92291 0.123938
5 1 6.81956 9.72684 1.30646 0.108276 0.490995 -0.283673
6 1 6.79144 9.92733 6.77315 -1.90019 0.207972 -0.098738
7 1 11.0638 11.2915 2.573 -0.570486 -0.418659 -0.385876
8 1 10.8395 11.2758 8.20317 -0.666976 -0.238136 0.182472
9 1 10.8782 5.47525 2.59928 1.01119 0.908491 -0.876777
10 1 10.9164 5.80947 8.21201 0.270943 -1.50986 -0.224638
11 1 5.40771 11.1689 2.66216 -0.0289784 -0.098933 -0.272189
12 1 5.40827 11.4459 8.20951 -0.412065 -1.27488 -0.052157
13 1 5.50933 5.69386 2.7461 0.367688 -1.39731 -0.816248
14 1 1.1581 4.20971 6.74466 0.376587 1.084 0.827641
15 1 1.31022 9.78735 1.18493 1.16627 -0.417853 1.22195
16 1 5.31675 5.62588 8.26708 0.200124 0.51255 -1.2613
17 1 1.27157 6.848 3.88176 -0.978276 1.20071 0.9531
18 1 1.02096 7.23252 9.68446 0.987938 0.057808 -0.462276
19 1 6.82197 1.21517 3.99428 -0.658252 1.11735 0.920795
20 1 6.65435 1.50264 9.66381 -0.144104 1.02939 -0.60891
21 1 6.90698 7.10326 4.10138 -0.964845 -0.323889 0.52343
22 1 6.72854 7.10895 9.51057 -1.24528 0.245873 1.26202
23 1 10.8036 3.00085 11.0558 -0.103593 -0.796588 -1.46119
24 1 11.0071 2.81655 5.37174 -1.31834 -0.929297 -0.0861038
25 1 10.7539 8.63284 11.0995 -0.537837 -0.0128914 -1.17484
26 1 11.0494 8.44745 5.35768 -0.133145 0.216853 -0.741982
27 1 5.12427 2.94127 11.0022 0.524561 -0.184658 -0.28438
28 1 5.40996 2.78861 5.42397 -0.204098 -1.61602 0.0154282
29 1 1.24664 1.41592 3.89712 0.557061 0.101178 0.96268
30 1 1.03142 1.48621 9.48311 0.560891 0.344773 1.0916
31 1 5.23718 8.5903 10.9826 0.556928 -1.09922 -0.310501
32 1 5.24934 8.42801 5.46184 1.79722 0.347625 -0.110741
33 1 4.09284 4.20259 4.07962 0.023072 0.160253 -0.428138
34 1 3.94443 9.93065 9.54185 0.118369 0.595907 -0.14953
35 1 9.57599 4.16842 3.93469 -0.72377 -0.579096 1.18035
36 1 9.43222 4.36354 9.51431 0.346994 -0.0196663 0.651354
37 1 9.5922 9.95051 3.93524 0.380048 -0.762345 0.986035
38 1 9.23574 9.91316 9.63675 1.19104 1.00971 -0.260387
39 1 2.47203 11.3459 10.8377 -0.11029 0.889467 0.754537
40 1 2.6478 11.445 5.36411 -0.70149 -1.4211 0.0939342
41 1 2.43039 5.72191 10.9436 0.123437 0.168932 -0.0659801
42 1 2.59602 5.58812 5.31726 0.119589 -0.405002 0.975971
43 1 7.93403 11.51 11.0345 0.0584087 -1.42028 -0.0669941
44 1 8.17283 11.2818 5.49261 0.518405 0.0157476 -1.18753
45 1 8.05319 5.72076 11.0241 -0.478209 0.142606 -1.04436
46 1 3.84412 4.31993 9.48199 -0.363519 -0.351892 1.08082
47 1 3.98491 9.82778 4.06217 -0.245838 0.290852 -0.182513
48 1 8.27923 5.6283 5.44234 -0.665675 -0.437995 0.176903
49 1 4.08761 6.81757 1.22513 0.279112 1.00929 -0.0587725
50 1 3.9017 7.01145 6.7751 0.13592 -0.20331 0.613264
51 1 9.59643 1.27593 1.17552 0.527938 0.603481 0.880191
52 1 9.50501 1.39237 6.83241 0.723463 0.384648 -0.56638
53 1 9.56578 6.99417 1.16666 0.333244 -0.681709 1.17035
54 1 9.65517 7.1252 6.79888 -1.67511 0.872751 0.0354069
55 1 2.75423 2.82046 2.66222 -0.0390624 -0.683004 -0.299661
56 1 2.60632 2.81788 8.11182 -1.23648 0.368778 0.583213
57 1 2.73093 8.2516 2.69712 -0.678999 1.40447 -1.66864
58 1 2.59816 8.49407 8.20135 -0.597944 -0.167704 0.134997
59 1 8.17032 2.66353 2.67888 0.117143 0.368666 -0.964699
60 1 8.14874 2.85512 8.16523 -0.652949 -0.19218 0.529504
61 1 4.04731 1.24755 1.27258 -0.183585 -0.275544 -0.537017
62 1 3.90296 1.34757 6.8949 1.4905 0.894262 -1.27728
63 1 8.24698 8.36139 2.66832 0.20881 0.730424 -0.294321
64 1 7.9559 8.52577 8.11787 2.206 -1.10994 0.0802336
