ITEM: TIMESTEP
940
ITEM: NUMBER OF ATOMS
64
ITEM: BOX BOUNDS xy xz yz pp pp pp
-3.1140387182500001e-01 1.1087275714303001e+01 -1.5890782108999999e-02
0.0000000000000000e+00 1.1635512432473000e+01 -2.9551308971599999e-01
0.0000000000000000e+00 1.1127300537966001e+01 2.9068760474299998e-01
ITEM: ATOMS id type x y z fx fy fz
1 1 1.37343 4.12625 1.26786 -0.437978 -0.510127 -1.19884
2 1 1.12971 9.89185 6.85179 0.329872 -0.909468 -0.260119
3 1 6.78338 4.01259 1.17073 0.30385 0.715548 0.759727
4 1 6.71317 4.30942 6.9232 0.742578 -0.589629 -0.643019
5 1 6.90369 9.84502 1.38253 -0.0810541 -0.00507877 -1.33217
6 1 6.72395 9.75833 6.88232 -0.169369 2.58992 -0.429845
7 1 10.9789 11.0576 2.58632 0.0227422 0.872621 0.180596
8 1 10.905 11.3953 8.21001 -0.0720585 -0.282602 0.0570874
9 1 11.0209 5.35509 2.70426 -0.503725 0.743963 -0.103317
10 1 10.7879 5.7054 8.25832 0.573914 -0.658369 -0.447182
11 1 5.39641 11.2197 2.64914 0.630578 -0.0327375 0.736953
12 1 5.2484 11.5059 8.04306 0.895286 -1.18455 0.590823
13 1 5.45763 5.5638 2.5968 -0.324717 -0.016037 0.115871
14 1 1.05431 4.26756 6.67409 0.570846 0.223759 1.4162
15 1 1.31041 9.72907 1.09992 0.205691 0.495989 0.368037
16 1 5.36287 5.74101 8.20359 -1.13992 0.156921 0.165041
17 1 1.37655 6.9195 3.9205 -0.616916 0.385545 -0.125003
18 1 1.02634 7.12305 9.73807 0.812937 -0.136451 -1.40699
19 1 6.74688 1.26714 4.10021 0.876556 0.277658 -0.482231
20 1 6.63102 1.63081 9.54945 -0.254789 -1.40707 0.118245
21 1 6.78757 7.11733 3.9166 0.195973 -0.865888 0.549563
22 1 6.5979 7.21863 9.57624 1.23769 0.346832 0.405575
23 1 10.7659 2.86087 10.9508 0.988648 0.293454 0.515291
24 1 10.938 2.70864 5.30784 -0.151006 0.505975 -0.039391
25 1 10.7518 8.55715 10.9294 -0.917822 -0.124305 0.981528
26 1 11.0526 8.224 5.3669 -1.04349 1.6637 0.171237
27 1 5.17325 2.87703 10.9904 0.329619 0.729421 -1.02632
28 1 5.52452 2.85758 5.39739 -0.913685 0.291356 -0.0283358
29 1 1.23954 1.26616 3.95636 0.511379 0.345351 -0.895113
30 1 1.23614 1.41262 9.58857 -0.811985 0.722683 0.156823
31 1 5.21511 8.75147 11.0059 1.2411 -0.588215 -0.376507
32 1 5.4376 8.47954 5.40419 -0.650977 -0.00746038 -0.33944
33 1 3.95335 4.20671 4.09697 1.17343 -0.302993 -1.4189
34 1 3.89456 9.95089 9.46477 0.434206 0.951581 0.0245367
35 1 9.36276 4.13792 4.10066 1.56543 -0.166018 -0.620534
36 1 9.37625 4.28588 9.5938 0.625979 0.0929541 0.224176
37 1 9.52177 9.78673 4.05558 1.15956 -0.611646 0.333458
38 1 9.39876 10.0977 9.61559 0.105751 -0.180428 0.0245198
39 1 2.63273 11.3399 10.8839 -1.01074 0.699775 0.704029
40 1 2.52346 11.274 5.43127 1.10763 0.664922 0.266103
41 1 2.56526 5.86853 11.0331 -0.769368 -0.896365 -0.134103
42 1 2.65656 5.64603 5.41974 0.0199682 0.381708 0.826152
43 1 7.97383 11.5667 11.0169 -0.342448 -0.759325 -0.292151
44 1 8.20368 11.2406 5.52993 -0.693784 -0.256113 -0.667897
45 1 7.94042 5.64809 10.943 -0.0350299 0.681483 0.14393
46 1 3.82775 4.34419 9.56604 0.522124 0.614238 0.361754
47 1 3.98984 9.87475 4.02973 -0.0769388 0.0414529 0.341409
48 1 8.064 5.61385 5.38469 0.0561064 0.755628 0.600598
49 1 4.13446 7.08146 1.19702 0.0153601 -0.461737 0.729747
50 1 3.94471 7.26477 6.87185 0.422982 -2.15615 -1.20937
51 1 9.62224 1.26959 1.30036 0.444567 -0.0138748 -0.0558627
52 1 9.63238 1.39863 6.72272 -0.881436 0.0104944 1.13191
53 1 9.64778 6.72437 1.25778 0.369048 1.03219 -0.580024
54 1 9.47278 7.03755 6.81995 0.255223 -0.0648177 -0.604941
55 1 2.75202 2.70815 2.47714 -0.436248 -0.603932 1.99947
56 1 2.47431 2.95229 8.24892 0.0520551 -0.278944 -1.35118
57 1 2.67281 8.49542 2.56768 0.226427 -0.97021 0.314273
58 1 2.55024 8.411 8.27415 -1.36165 1.17039 -0.0249792
59 1 8.19728 2.70622 2.63086 -0.637547 -0.692277 0.205685
60 1 8.20402 2.79445 8.24944 -0.577613 0.456682 -1.38483
61 1 4.19804 1.25572 1.23827 -1.07162 -0.549729 -0.330727
62 1 3.95867 1.65625 6.68051 -1.26156 -1.58709 0.616514
63 1 8.35646 8.34171 2.54527 -0.633078 -0.139644 0.422263
64 1 8.23422 8.57104 8.15809 -1.14656 -0.904911 1.25021
