128
Lattice="11.636 0.000 0.000 0.000 11.652 0.000 0.000 0.000 23.161" Properties=species:S:1:pos:R:3:forces:R:3 energy=-666.82470703 virial="-211.93232727 2.75351119 0.42671862 2.75351119 -213.96807861 -0.64881158 0.42671862 -0.64881158 -206.77491760"
Si     1.42370274     4.37194230     1.42250881    -0.13950753    -0.09378169     0.11704791
Si     5.93126046     8.69432215    23.17305906    -0.05492934     0.01216974    -0.10285959
Si     5.80652060     2.97376443    17.26670312    -0.01561508    -0.50761068     0.28103927
Si     5.79029485     2.90807657    11.56725648     0.42204684     0.29632658    -0.06360140
Si    11.67196847     8.71816241    17.55741407    -0.10063599    -0.18283680    -0.26841763
Si    -0.06801140     8.79313891    23.27173503     0.38925904    -0.11946318    -0.05450823
Si    -0.04155926     2.94299439    17.37445633     0.03712992    -0.08222027    -0.12338097
Si     0.11456239     2.82835848    11.62748512    -0.19029854     0.32865018    -0.33585268
Si     7.29300311     7.26490943    21.61801847    -0.03577463     0.17969802     0.39252061
Si     7.34730660     7.20475032    15.85561873    -0.25286207     0.52099317     0.14363900
Si     7.33148031     1.51163785    21.81793544    -0.53958464    -0.08025925    -0.37672457
Si     7.29379878     1.37692019    15.91362138    -0.14035434     0.49548241    -0.02517624
Si     1.43024950     7.35950466    21.84312258     0.08999414    -0.51231527    -0.27960646
Si     1.53094057     7.30212580    16.07514277     0.02415070     0.05673801    -0.22560194
Si     1.40269928     4.33479332    18.92034282     0.19136573     0.06809323    -0.10472810
Si     1.43320651     1.39824349    21.83581847    -0.06321147     0.12008195    -0.40076011
Si     5.80801785     5.82063836    20.21251558     0.35497788    -0.01988913    -0.20205794
Si     5.85518579     5.86354657    14.38560891    -0.13559739    -0.32535487     0.35138905
Si     5.86194483    11.78122290    20.27688097    -0.14565152    -0.62529635     0.05234949
Si     5.80402746     0.06785972    14.43783109     0.03514329    -0.26935792    -0.07568952
Si    -0.03645095     5.78398832    20.44362485     0.16396312     0.23628278    -0.25609022
Si     0.10403897     5.94334258    14.55029643    -0.45232591    -0.40511292    -0.22259465
Si    11.59908692    11.74351030    20.32834637    -0.06402595    -0.40255851     0.04674702
Si    11.70973255    11.55787457    14.49657476    -0.08013055     0.15022057    -0.28765666
Si     7.14527239    10.18173411    18.82727458     0.63224387     0.44006449    -0.19457854
Si     7.30709009    10.27183605    13.01282231    -0.09642532    -0.32890061     0.34459394
Si     7.28705603     4.41110325    18.68568149    -0.07493748    -0.04694597     0.38222098
Si     7.31849390     4.32643591    13.10046237    -0.16978651    -0.04389554    -0.59180546
Si     1.40245456    10.14397425    19.04264904     0.32290348     0.40553057    -0.79360199
Si     1.46461390     1.46212931    15.91031248    -0.16993091    -0.04023718     0.12322186
Si     1.51094777    10.19947220    12.86341820    -0.12393388    -0.10833967     0.74715257
Si     5.83849746     8.80027140    17.23852248    -0.05968843    -0.29116517     0.14146815
Si     8.84534902     5.86126243    17.34379750    -0.31032023    -0.04688233     0.18086624
Si     8.65064846     2.95297564    20.27288762     0.11047103    -0.11738439    -0.30117834
Si     8.76596512     2.86179810    14.48945714     0.10434721     0.05011066    -0.04471211
Si     2.93927031     8.65267854    20.29503556     0.21514429     0.33986920     0.13233434
Si     2.92782600     8.75026518    14.44304738    -0.00911659    -0.03841977    -0.22077906
Si     2.84082054     2.78693581    20.31911886     0.16488276     0.39863518    -0.05646342
Si     2.84858371     2.93186288    14.41189039     0.29295331    -0.12857421     0.08591327
Si    10.21800123     7.28538947    19.04430526    -0.14694391     0.09589317    -0.80062336
Si    10.12636863     7.24234541    13.07561743     0.45303696     0.13103881    -0.30175185
Si    10.07152142     1.47019899    18.77467437     0.34260178     0.04448711     0.27772653
Si    10.27602085     1.40643840    13.04286396    -0.08909278     0.15144350     0.35741937
Si     4.48819649     7.32540549    18.72389752    -0.51176918    -0.21151346     0.36107910
Si     4.46857839     7.35518373    12.92939216    -0.15529941    -0.05180583     0.45268494
Si     4.30901379     1.43605775    18.82847623     0.23009618     0.23344472    -0.20996630
Si     4.42097906     4.27770200    21.66479714    -0.56243038     0.29201481    -0.02026247
Si     4.30167082     4.34395619    15.85458055     0.33813438     0.33559841     0.00114872
Si     8.76821184     5.73524075    11.58481040     0.08266471     0.07938432     0.13961095
Si     8.68729933    -0.06443381    17.36041929     0.09797797    -0.15699795    -0.05742631
Si     8.73977543    11.70842878    11.72186200     0.13294505    -0.17952383    -0.79805577
Si     3.01205237     5.79016500    17.45226788    -0.44417685     0.02767020    -0.24909855
Si     2.94543276     5.90172043    11.62141481    -0.43982369    -0.00986410    -0.17485625
Si     2.87805181    11.63781843    17.36753389    -0.06559472    -0.11230086     0.23532715
Si     3.00164585    -0.03127181    11.45588303    -0.11807546     0.02336782     0.21345478
Si    10.19979927    10.25355301    21.78339208    -0.34796199     0.17055768    -0.02047724
Si    10.23600416    10.04171397    15.88653520    -0.14389394     0.47917885     0.44267589
Si    10.05171878     4.35118152    21.71695280     0.29885885    -0.00449994     0.30195406
Si    10.20175190     4.42637061    15.83060330     0.25621226    -0.16726041     0.53279120
Si     4.54073814    10.10822194    21.67980245    -0.54096735     0.29358095     0.04870671
Si     4.29751247    10.24660914    15.81395033     0.34293664     0.00849222     0.34394297
Si     4.44368649     1.50487815    12.93369588    -0.69259340    -0.28578764     0.38355309
Si     1.42678502     4.44204207    13.05189061     0.35334632    -0.04457004    -0.03611254
Si     8.66547348     8.85617118     8.79161568     0.22994602    -0.29716265    -0.21423033
Si     8.73159969     8.60324904     2.95972882     0.13130029     0.14853233    -0.30087709
Si    11.53271039     8.70421373     5.89757745     0.18318817     0.18592453    -0.49752146
Si    -0.07141134     8.74683646    11.60322152     0.11014137     0.04481128    -0.13682391
Si    -0.01265572     2.89260042     5.72261446    -0.24952392     0.11412522     0.06998731
Si    -0.11829950     2.89158536     0.04205841     0.60364091     0.51550531    -0.48877525
Si     7.33259100     7.22457122    10.15900032    -0.16871354     0.17696685    -0.18505988
Si     7.30549739     7.16704144     4.39786957     0.15135044     0.18488078     0.01868184
Si     7.22798463     1.35093314    10.16155055     0.01821855     0.51142371     0.17057754
Si     7.32712461     1.48674380     4.21120205    -0.43097347     0.02982588     0.54750443
Si     1.35027431     7.33592405    10.15959952     0.72122753    -0.20722499    -0.15207638
Si     1.40583641     7.35323722     4.38153097     0.22761126    -0.52370179     0.21689251
Si     1.56609885     1.42825515    10.04624378    -0.41624320    -0.06218322     0.12844697
Si     1.33738031     1.39866084     4.28976869     0.30599329     0.25653410     0.16482107
Si     5.84358207     2.93512790     5.66271768    -0.11786193    -0.17973247     0.37483740
Si     5.79462709     5.82268455     8.64342004     0.11626486    -0.06619370     0.41209134
Si     5.74270905    11.64026746     8.69546563     0.31607583    -0.13844880    -0.22251633
Si     5.75646827     0.05442484     2.80579636     0.38554367    -0.12921745     0.20953648
Si     0.05029811     5.81967437     8.72227368    -0.40877229    -0.09078154    -0.13394818
Si     0.04513353     5.79638371     2.97263780    -0.14573543     0.29731047    -0.38136277
Si    11.59821156    11.68654010     8.60876459     0.35172048    -0.05571661     0.27860880
Si    11.49835305    11.69655464     2.87955798     0.27608469    -0.07951586    -0.20848750
Si     7.32233973    10.30532687     7.20641780    -0.21459627    -0.22099739     0.23100808
Si     7.37482866    10.18904543     1.54125185    -0.53764427    -0.12295514    -0.33912170
Si     7.24984001     4.32836886     7.26609837    -0.03985471    -0.11623374    -0.01902444
Si     7.18032027     4.39863587     1.47919320     0.01305956     0.01285242    -0.17027718
Si     1.43262903    10.21916882     7.14818091     0.05797449    -0.11865691     0.41054130
Si     1.45804336    10.28592481     1.54425300    -0.06966807    -0.46128449    -0.40836689
Si     1.41110341     4.31021799     7.13223645     0.16890529     0.02461226     0.66656482
Si     5.79938925     5.81368729     2.92639166    -0.27939379    -0.02559707    -0.13673857
Si     5.98346678     8.77669242    11.54153071    -0.55055535    -0.19947951    -0.00183585
Si     5.74293951     2.90426414    23.18935537     0.29589713     0.00762957     0.08197811
Si     5.99334522     8.78888644     5.70986676    -0.72151440    -0.18296453     0.30699432
Si     8.64028795     2.87562133     8.78548875     0.47577211     0.05689191    -0.37611714
Si     8.79485687     5.72540123     5.93712574    -0.45292169     0.57156885    -0.22273970
Si     8.64381736     3.08681704     2.93398484     0.42564648    -0.42702901    -0.41730630
Si     2.94387607     8.68010222     8.60855943    -0.40756422     0.13500585     0.15238819
Si     2.92806551     8.74047048     2.91991850    -0.05698121    -0.02865933    -0.26309437
Si     2.92057327     2.89446358     8.62597672    -0.00101454     0.32823157     0.07670265
Si     2.76835415     2.89376407     2.87435695     0.21747752    -0.07270773    -0.07566622
Si    10.06508957     7.29137758     7.42075037     0.51226670    -0.04376983    -0.35592192
Si    10.20423370     7.15839069     1.46468748    -0.26680565     0.42472929     0.13541175
Si    10.17952964     1.52895763     7.22020222    -0.15120853    -0.10206953     0.16796643
Si    10.09184162     1.62433620     1.37322749    -0.24428055    -0.68125677     1.01297235
Si     4.40389924     7.23325725     7.18446146    -0.03406596     0.11223961    -0.13185516
Si     4.40588272     7.20305967     1.34207840    -0.13868135     0.32252488     0.57527477
Si     4.39780818     1.50163381     7.20876935    -0.10710950    -0.17697296    -0.17358342
Si     4.22761802     1.48398080     1.42287144     0.36294025    -0.29540944    -0.14769256
Si     8.62644844     5.81069786     0.00722395     0.27861899    -0.01046075    -0.07521982
Si     4.25815736     4.32363099     4.29188255     0.31430629     0.00569463     0.04772272
Si     8.76118629     0.10726951     5.80703891    -0.05856957    -0.38586926    -0.52538085
Si     8.70930297    11.70254606     0.07941426     0.22998887    -0.10490739    -0.20933041
Si     2.88052736     5.68304809     5.80741547     0.06992820     0.86797643    -0.35957271
Si     2.91706567     5.75578742    -0.05110153     0.03920703     0.17320983     0.12448975
Si     2.90752332    11.68638060     5.74499166     0.01189648    -0.19390468    -0.13656284
Si     2.97487598    -0.12757766    -0.08412505    -0.28765413     0.39045972     0.58574784
Si    10.18366347    10.27265717    10.18988494    -0.16847314    -0.05071099    -0.07099845
Si    10.16154120    10.11351437     4.26555948    -0.10502099     0.33025476     0.77135336
Si    10.28964177     4.30957717    10.14799620    -0.34387273    -0.10644096     0.18303874
Si    10.16782585     4.46085194     4.36420576     0.13426720    -0.51620686     0.12122554
Si     4.36686422    10.05773620    10.10637444     0.27467579     0.45799851    -0.21724661
Si     4.42557037    10.20209529     4.26341115    -0.08831578     0.08186246     0.34385368
Si     4.29408488     4.42317755    10.20808466     0.34713143    -0.24644586    -0.59179974
Si     8.71273378     8.69486647    14.41887138     0.07324450     0.13264878     0.22821775
Si     8.70962500     8.88101661    20.27770978     0.03555932    -0.60553622     0.19417208
128
Lattice="10.377 0.000 0.000 0.000 10.259 0.000 0.000 0.000 21.417" Properties=species:S:1:pos:R:3:forces:R:3 energy=-663.03198242 virial="247.47640991 -14.67778206 4.81742668 -14.67778206 251.83702087 0.15702951 4.81742668 0.15702951 225.25382996"
Si     1.20060765     3.95843172     1.31270027     0.43509650    -0.68756944     0.23379874
Si     5.23288878     7.57031607    21.44685183    -0.99091733     0.37374818     0.02802130
Si     5.11432447     2.40083496    15.94471903     0.41084021     1.72537184    -0.56363928
Si     5.30000760     2.80713039    10.60933281    -3.15122271    -1.83246958     0.94945836
Si    10.49218528     7.54704177    16.26185217     1.32250214     0.18371384     0.47156733
Si     0.03225743     7.68487591    21.51262950    -1.15881705    -0.02247396    -0.96917742
Si     0.07891586     2.47211583    16.21059567    -0.28318930     0.87838900     0.70828170
Si     0.17207515     2.54612991    10.67084463     0.66025370    -0.55584192     1.54419136
Si     6.49691686     6.36680971    20.12466159    -0.84471953    -0.82447016    -0.58501351
Si     6.49372792     6.48459408    14.63738818     0.12262337    -0.14540981     0.79033589
Si     6.16350471     1.33013652    20.00562323     1.42693973     0.43921900     0.68519020
Si     6.52982864     1.36902655    14.63599690     0.66373390    -1.33641052    -0.20930618
Si     1.36384092     6.33184626    20.23356294    -0.04465089     1.27001834    -0.44267595
Si     1.47809888     6.48327337    14.78531761    -0.46796739    -0.14779779    -0.88151693
Si     1.25947892     3.84634480    17.54421560    -0.94310087     0.21088524    -0.01516113
Si     1.25008248     1.18688206    20.10768284    -0.46747047     0.31423569     0.56030858
Si     5.38024968     5.13211067    18.55092713    -1.20630312    -0.00746413     1.26857495
Si     5.36460065     5.06425637    13.32033693     0.28241605    -0.39863867     0.16507691
Si     5.11588134    10.19089251    18.67580045    -0.06311560     0.31699163    -1.08342755
Si     5.16032036     0.05688093    13.33979036     0.86225325     0.19296840    -1.03231239
Si     0.02369735     5.15396952    18.92276171    -1.07258403    -0.32095397    -0.54001057
Si     0.04080667     5.14388184    13.42612773     0.72056997     0.01400320     0.44284612
Si    10.19690514    10.25412284    18.83594650     0.64790881    -0.36191559    -0.03983239
Si    10.51674417    10.05977116    13.47422767    -0.43944567     0.16256239     0.57689959
Si     6.63311394     9.12985277    17.37225844    -0.72671640    -1.68431711     0.52010643
Si     6.60711802     8.91116631    12.11012579    -0.15899995     0.57028687    -0.71257520
Si     6.43190708     3.83962655    17.11595328     0.30094948    -0.97305429     0.49779028
Si     6.63882404     3.76294061    11.92711063     0.88567770     0.49084252     2.71049452
Si     1.32271470     9.06813372    17.53872529     0.34343195    -0.50367248     0.14052187
Si     1.16667106     1.28015390    14.79823062     1.07537735    -0.12228353    -1.31509280
Si     1.39823244     8.96691079    12.07184003     0.08306656    -0.15432568    -1.61708343
Si     5.16194762     7.79917316    15.98677708     1.14834762    -0.86327088     1.27978039
Si     7.80212711     5.23656603    16.08673701     0.01737347    -0.15183896    -0.97775185
Si     7.63099129     2.50891950    18.61592053    -0.14168991     0.84705150     0.88485688
Si     8.00355195     2.52975711    13.38394571     0.10192046     0.73590994     0.11015228
Si     2.72175956     7.73706742    18.97158672    -0.21803933    -0.33059973    -1.09087884
Si     2.74707728     7.64398007    13.17827632    -0.82539058     1.56929731     3.25497103
Si     2.44997500     2.46679503    18.73251465     1.09700620    -0.37473041     0.28178662
Si     2.53383690     2.57262803    13.46408593     0.25797796    -0.37560469    -0.89870727
Si     9.04830370     6.41384056    17.48025886     0.22303958    -0.16274649     1.20325899
Si     9.31298054     6.43106359    11.93337340    -0.36879489     0.75137985     1.10268235
Si     9.07085983     1.27329138    17.42283304    -0.73001504    -0.45335549    -0.09659506
Si     9.36857641     1.16787599    12.15981878    -0.88877273     0.52276015    -1.19502020
Si     3.91491168     6.34175475    17.32527381    -0.43866259     1.00100505     0.32686216
Si     4.04518010     6.36882810    12.14325632     0.58659703    -1.11653531    -2.56552315
Si     3.88224080     1.34070199    17.33947716    -0.27013361    -0.43896204     1.86337638
Si     3.72882717     3.95072917    19.87506829     1.45155609    -0.34269404     0.17205837
Si     3.95337238     3.91965995    14.64655838    -0.52658874    -0.37199450     0.67525339
Si     8.00742288     5.04111383    10.82795785    -0.48516655     1.01352072    -1.00837004
Si     7.92330873    -0.05417229    15.93642324    -0.37350994     1.14180303    -0.14072102
Si     7.82140525    10.45761994    10.59750651    -0.20745420    -0.60739541     2.19499373
Si     2.46030018     4.99222821    16.14081642     1.68307710     0.59048545    -0.78795683
Si     2.60672174     5.28423710    10.58738061     1.83192110    -0.65368938     0.63179111
Si     2.58802178    10.39689355    16.05900195    -0.78192031    -1.17637551     0.33577701
Si     2.63005561    -0.21760211    10.43701658    -0.01663402    -0.10459784     0.35603932
Si     8.89855424     9.12803650    20.28625401     0.93067747    -1.30544019    -0.17931886
Si     9.33199843     8.79507275    14.93940530    -0.49666241     0.91041398    -1.04761875
Si     8.85608441     3.92026970    20.15936420     0.53762478    -0.95114630    -1.13752437
Si     9.25184290     3.83810818    14.96867802    -0.93991780     0.55101234    -1.51466560
Si     4.04036360     9.11629171    20.26249108    -0.51163423    -1.03514707     0.03138873
Si     3.98178133     9.18510016    14.81033712    -1.46567297    -0.99567032    -1.34607852
Si     3.67153178     1.12039176    11.90645290     1.34960580     1.71286345     0.38177878
Si     1.44527691     3.98972743    11.97916891    -0.69861782    -0.75984782     0.56285322
Si     7.82375742     7.75503362     8.10818000     0.10728414    -0.18831450    -0.12364304
Si     7.70806102     7.61580799     2.68548693    -0.36962533     0.97879547     1.36942041
Si    10.38332773     7.66495504     5.32827500    -0.12186977     0.15235011     0.98182571
Si     0.05386110     7.82732518    10.53724987     0.48945183    -0.09393127    -0.03088260
Si    -0.12355499     2.51147173     5.45190675     0.37437516     0.77186191     0.12826589
Si     0.00757117     2.69990877    -0.06155367    -1.31601381    -1.55781889     0.40004668
Si     6.65941399     6.37869324     9.45470955    -0.04358358    -0.20219135     0.29646420
Si     6.54899850     6.27747153     4.08956137    -1.46693981     1.01217675    -0.39122570
Si     6.39559659     1.41972102     9.40712181     0.30098939    -1.44027650    -1.39146256
Si     6.31109447     1.34344950     4.01584819     1.29059243     1.02130771    -1.37268209
Si     1.39043237     6.42131001     9.19727779    -1.88124025     0.10296892     0.43234509
Si     1.24846897     6.44628553     3.97394582    -0.95223099     0.56330007    -0.96739674
Si     1.36861160     1.24956884     9.30131621     0.83690244     0.77695060     0.34832537
Si     1.17210464     1.30310126     4.00627530    -1.13675153    -0.37204868    -0.38085482
Si     5.13012342     2.54562627     5.34760692     0.21901260     1.80059290    -0.24078572
Si     5.36382642     5.11015769     8.08591511    -0.61194819     1.16402197    -0.94708478
Si     5.24039363    10.42222739     7.80729930     0.15947527    -0.06255861     0.58501440
Si     5.32542459     0.00999577     2.61997668    -1.45695353    -0.07382433     0.04179005
Si    -0.20320956     5.08822909     8.15982419     1.39647460    -1.16872060     0.65043771
Si    -0.03998191     5.20056179     2.63693932    -0.59867126    -0.72140467     1.20902824
Si    10.51737497    10.31477441     7.98674502    -1.40950394     0.08119073    -0.65259600
Si    10.25155417    10.08985298     2.63222195     0.40193379     0.61926776     1.27604485
Si     6.57481764     8.95306893     6.69148429    -0.32638049     0.31290510    -0.38259649
Si     6.41504481     8.87842464     1.35567716     0.82803142    -0.06865302    -0.32574466
Si     6.43822782     3.62308806     6.80886802     0.54274857     0.78217781    -0.57041001
Si     6.32130700     4.01528652     1.28046720     0.06250069    -0.32973540     0.68164694
Si     1.29664599     8.96076560     6.71173461    -0.61952674     0.60896319    -1.91405189
Si     1.30389109     8.90054440     1.41644912    -0.62491304    -0.16971450     0.72148699
Si     1.34836872     3.88981497     6.82748222    -1.60617399     1.42606759    -2.25736785
Si     5.02681257     5.14999515     2.77571103     0.28649586    -0.48507506     0.42493945
Si     5.15098136     7.65802888    10.60987325     0.85196030     0.41458613     0.61591339
Si     5.04984944     2.67605070    21.45937264    -1.13856196    -0.44694263    -0.59308141
Si     5.13953671     7.73039070     5.40845751     1.59604907    -0.09986877    -0.76824772
Si     7.87910609     2.50444611     8.11033155    -1.95483851    -0.14950214    -0.56880224
Si     7.65737964     5.24174268     5.65075164     0.95086682    -1.48494768     0.05662391
Si     7.64165222     2.74558466     2.62978388    -0.63993621     0.07272573     1.07986069
Si     2.54501484     7.71050210     7.88715018     2.40763354    -1.15242386    -0.19003488
Si     2.60408601     7.68189349     2.71533347    -0.40398002     1.04569161     1.30235803
Si     2.61818533     2.63617293     7.99691560     1.02870345    -2.39988518    -0.34784493
Si     2.36277666     2.39495094     2.48320530     0.79356956     0.52105939     0.14708854
Si     9.16864075     6.46724045     6.82278478    -0.84609228     0.55110407    -0.84547341
Si     9.00131310     6.45861056     1.41987704     1.17979074     0.10217734    -0.75644183
Si     8.90549280     1.19073549     6.77740377     1.22522593    -1.13097906    -1.64287543
Si     8.83842854     1.20007917     1.63708258     0.91198659     0.80373687    -2.35784006
Si     3.91833229     6.28852474     6.47659514     0.66684151     0.49778068     3.32272649
Si     3.82475901     6.49893023     1.44532670     0.91453254    -1.28454590    -1.56095243
Si     3.83672122     1.19101786     6.34768457    -1.19468129     0.21884033     2.62714720
Si     3.80975273     1.04706479     1.29925782     0.56694907     1.54512835     0.07314677
Si     7.75052113     5.24677066     0.12230212    -0.27902812    -0.62520313    -0.29408142
Si     3.71991382     3.60214419     3.94183948    -0.29533660     0.94051534    -0.20593925
Si     7.61346413     0.05846291     5.15954125     0.88760388    -0.31151539     1.85667014
Si     7.54147749    10.37922406     0.07949360    -0.26135141     0.69041073     0.04286343
Si     2.61343902     5.31101663     5.12643906    -0.44767836    -3.64974213     0.73182869
Si     2.65440306     5.07268375     0.07350834     0.50225484     0.28202298     0.39623186
Si     2.46261324    10.21315319     5.18472861     0.01206205    -0.99378628    -0.04437780
Si     2.44218758    -0.15496145     0.06753313     0.50101691     0.86254430    -1.40749669
Si     9.05747438     9.21395698     9.27788382     0.66007864    -0.89672029     0.19597471
Si     8.98892753     8.91692470     4.14161660    -0.08868097    -0.21078211    -1.19939446
Si     9.01428440     3.55597704     9.53083967     1.24807858     2.25679255     0.03134785
Si     8.96130359     3.91470536     4.09800813     0.18779689     0.40322721     0.23616712
Si     4.06032402     8.93067433     9.04379914    -0.22686985    -0.11229764     0.70871121
Si     4.00782105     8.99567198     3.97082793    -0.72912240     0.30494514    -0.22333100
Si     3.94600570     3.85929352     9.22372276    -0.74708712     1.00091064     1.14211679
Si     8.02236684     7.67279340    13.52649937    -0.17946956    -0.09239321    -1.56319928
Si     7.76653203     7.65234124    18.93648490     0.52990407     1.44667768    -1.54523063
128
Lattice="11.463 0.000 0.000 0.000 11.372 0.000 0.000 0.000 23.289" Properties=species:S:1:pos:R:3:forces:R:3 energy=-672.27746582 virial="-175.37561035 1.50756800 0.48447600 1.50756800 -166.16500854 0.63646859 0.48447600 0.63646859 -193.91413879"
Si     1.31918434     4.25168354     1.44693271    -0.11432225    -0.05473133    -0.00115607
Si     5.62754739     8.44926325    23.30113444     0.45886889     0.19320799     0.15388815
Si     5.73910779     2.80371022    17.29330710     0.09142026    -0.30575922     0.50732499
Si     5.59639969     2.86447148    11.69071893     0.96312469     0.19224411    -0.48516282
Si    11.72766852     8.41601432    17.67519574    -0.83910042     0.22440307    -0.45144394
Si    -0.07555374     8.51354333    23.24991723     0.19805515     0.05265267     0.69661987
Si     0.01695476     2.82355933    17.66119199    -0.12088164     0.04899540    -0.56817114
Si     0.22473099     2.78560444    11.77953889    -0.33493775     0.16312179    -0.61990857
Si     7.09997089     7.05355046    21.82226226     0.11022285     0.23221755    -0.02202561
Si     7.23098913     7.20808955    15.98484581     0.19356689    -0.30593735     0.04596297
Si     6.91018010     1.51168095    21.76510935     0.30314720    -0.23919624     0.18814957
Si     7.30416829     1.40719694    15.84182535    -0.14709149     0.23491296     0.34451830
Si     1.49079450     7.14041474    21.89676559    -0.35001257    -0.21750008     0.01612243
Si     1.53417762     7.08510361    15.97544026     0.43975356     0.30928552     0.46605304
Si     1.36187222     4.29446699    19.06454296     0.31602329    -0.01457229    -0.31262308
Si     1.27619318     1.39730997    21.87485735     0.22335511    -0.01019033     0.07773724
Si     5.71219257     5.65823687    20.26990854     0.11554284     0.12970735     0.06036830
Si     5.96023554     5.60440738    14.56352824    -0.60966611     0.34082687    -0.08325187
Si     5.67091063    11.29390220    20.27430484     0.15523557     0.30140457     0.59444886
Si     5.82442514     0.04688247    14.37592084    -0.15723732    -0.24962747     0.54099166
Si    -0.10765926     5.69818217    20.49970768     0.50576907    -0.11502796    -0.01971624
Si     0.16666668     5.68666424    14.60364406    -0.21873859     0.08672862    -0.26877403
Si    11.36184867    11.25577762    20.49438553    -0.00516851     0.40086928    -0.06936042
Si    11.58436728    11.23973124    14.62326064     0.19199230     0.34602141    -0.35059834
Si     7.29014143     9.92912404    18.90634189    -0.37751213     0.46907908     0.05027384
Si     7.29539458     9.93422449    13.05576749    -0.01537765     0.10309003     0.19280544
Si     7.13968881     4.19021952    18.75483840    -0.07034731     0.46279335     0.28961688
Si     7.41813401     4.21581006    13.16908057    -0.46526712     0.17860579    -0.29953316
Si     1.51281641     9.93660332    19.11079412    -0.16837022     0.20572537    -0.42613012
Si     1.45036009     1.44287461    16.00665059    -0.06393247    -0.07800505     0.34075359
Si     1.56839392     9.87660747    12.99821197     0.19790375     0.22312450     0.39068180
Si     5.79878872     8.56857309    17.58427297    -0.18363364    -0.02373564    -0.74636412
Si     8.59299405     5.73043555    17.42076041     0.30454078    -0.02335548     0.34573722
Si     8.44135561     2.85204307    20.36429445     0.18534310    -0.16769969    -0.15170570
Si     8.90045846     2.87160138    14.59781204    -0.54977763    -0.28441364    -0.17682743
Si     2.95689907     8.57801816    20.47837482    -0.29775816    -0.25826859     0.09448214
Si     3.05952932     8.55339809    14.61280506    -0.35877782    -0.45977801    -0.62990654
Si     2.81244925     2.80608911    20.42286638    -0.18695483     0.21604577    -0.01042875
Si     2.89066616     2.82324639    14.52418360     0.04639807    -0.00521412     0.11605707
Si    10.04602504     7.11245419    19.05868079    -0.05736544     0.03152028    -0.46128750
Si    10.33254672     7.21343496    13.08561485    -0.48551792    -0.28552854    -0.08044753
Si     9.94763614     1.37973758    19.00218219     0.29107583     0.16987348     0.01360819
Si    10.23096497     1.37243866    13.12520552    -0.16277823    -0.05723725     0.31833738
Si     4.26833100     7.16491211    18.95514184     0.37209859    -0.19208042    -0.19438955
Si     4.47085366     7.01961338    13.02360589     0.07076462     0.51364291     0.39459863
Si     4.26479579     1.42756581    18.96541005     0.06167118     0.04271289    -0.54583883
Si     4.25138187     4.35635850    21.70767206    -0.44640839    -0.22731096     0.40434426
Si     4.30793994     4.22737085    15.97678851     0.29056409     0.25732839    -0.17082511
Si     8.78763338     5.76169817    11.73119164     0.02847826    -0.39853844     0.07350669
Si     8.68610059     0.05771390    17.39724921     0.00160668    -0.68517590     0.17149493
Si     8.62180453    11.43609302    11.70761156     0.25763762     0.02256593    -0.58676344
Si     2.89812310     5.69084442    17.44974406    -0.08448097    -0.18100704     0.29664198
Si     3.00402915     5.71560751    11.54857704    -0.50997877     0.18882641     0.21708399
Si     2.82322044    11.42611659    17.50789194     0.33066344    -0.25978088     0.01721456
Si     2.94943936    -0.15966293    11.44646911     0.18125664     0.53467733     0.28785574
Si     9.87952824     9.96432326    22.02769902     0.07569037     0.22656679    -0.59091336
Si    10.27195937     9.84839461    16.15404695    -0.40604627     0.26974598    -0.18880785
Si     9.88470223     4.22902305    21.80953231     0.03898974     0.16845764     0.43604353