128
Lattice="12.620 0.000 0.000 0.000 12.667 0.000 0.000 0.000 24.943" Properties=species:S:1:pos:R:3:forces:R:3 energy=-595.26306152 virial="-356.76641846 0.52454174 -0.13007957 0.52454174 -361.49270630 0.19575274 -0.13007957 0.19575274 -341.91244507"
Si     1.73600393     4.67388318     1.75564701    -0.05517440     0.17753235    -0.42022142
Si     6.32899787     9.44515499    24.86483277    -0.21800408     0.11613250     0.16542809
Si     6.27106148     3.09005096    18.64250849     0.08675621     0.42959452     0.18377501
Si     6.19746992     3.23375845    12.45764988     0.09689352     0.23857659     0.11522622
Si    12.61788898     9.51506583    18.77537127    -0.04064932     0.17651413    -0.17383063
Si    -0.05332790     9.52683463    24.99688486     0.39767450     0.14537609    -0.03728159
Si    -0.07164172     3.03165657    18.65917343    -0.02150500     0.21409220     0.08404976
Si     0.13668614     3.18832413    12.50016575    -0.73566008    -0.07308386    -0.20488334
Si     7.87604556     7.90483479    23.27982203    -0.14420417    -0.03866677     0.01321216
Si     7.96449110     7.86119795    17.20910937    -0.40141696    -0.13151610    -0.17420357
Si     7.95782210     1.62008744    23.50525354    -0.07041327    -0.19686700    -0.03367607
Si     7.82496881     1.66069575    16.96419120     0.03302656    -0.33085009     0.38251388
Si     1.56673517     7.89931929    23.53154219     0.31292492    -0.15600955    -0.45418251
Si     1.43410044     7.96267825    17.09125489     0.26207423    -0.14538261     0.24986908
Si     1.57476339     4.62642758    20.19711454     0.17504218     0.45051569     0.20588407
Si     1.56496530     1.69099868    23.44509366     0.26801467    -0.23899809    -0.00171706
Si     6.22062662     6.28637085    21.71920892     0.37643602    -0.05453781     0.40047401
Si     6.23307441     6.35701805    15.57346336    -0.07969406     0.11844133     0.10564572
Si     6.35031585    12.62683253    21.95569123    -0.24991378     0.16867545    -0.35421896
Si     6.22558816     0.01352726    15.48293455     0.13608001    -0.03242065     0.10594352
Si     0.16851427     6.26978072    21.87703733    -0.57917738     0.09484794     0.16029800
Si    -0.05860693     6.30050212    15.62872078    -0.12909108     0.19488469    -0.35602266
Si    12.79320896    12.73237714    21.85032863    -0.52777195     0.05202277    -0.02861270
Si    12.48203964    12.63188554    15.53506923     0.26243982     0.33300376    -0.11824965
Si     7.74909057    11.07850276    20.20484669     0.43308419    -0.15848123     0.23346962
Si     7.84601669    10.95939924    14.13175877    -0.01834031     0.31834674    -0.33919764
Si     7.89652581     4.67602242    20.31345458    -0.26177359     0.03678837    -0.09419768
Si     7.74598265     4.87738889    13.99004307     0.32046109    -0.50687724     0.00210546
Si     1.71067222    11.17692486    20.23369707    -0.14336726    -0.28060040     0.14515151
Si     1.52448952     1.59104985    17.04505415     0.12183973    -0.19534239     0.43637258
Si     1.50835222    11.17685612    13.88221146    -0.16703361    -0.42972606     0.35994765
Si     6.27155929     9.38893534    18.62050901     0.00886225     0.21096946     0.10452744
Si     9.38967741     6.24383841    18.83424498     0.29561090     0.08703186    -0.30715185
Si     9.50700778     3.13610003    21.92124670    -0.04711913    -0.01841255    -0.01286098
Si     9.47768899     3.20217878    15.49282403    -0.45787829    -0.08554933     0.10881200
Si     3.18169452     9.50122070    21.86028533    -0.05201345     0.05004156    -0.04834952
Si     2.98434208     9.50286518    15.53303998     0.23492947     0.09810338    -0.19711897
Si     3.22230825     3.22713384    21.84452248    -0.22683445    -0.32909268     0.04857891
Si     3.18720562     3.18470756    15.75502427    -0.28935573     0.22113761    -0.69714624
Si    11.12864563     7.94435632    20.42368432    -0.20027146    -0.14958471    -0.38677752
Si    11.17372550     7.82791930    13.90056130    -0.51653385     0.08012995     0.46253636
Si    11.00000293     1.51132263    20.32460943     0.28123283     0.09965864    -0.11353871
Si    10.98912838     1.59509810    13.98125190     0.09940950     0.00233678     0.23585545
Si     4.67303069     7.82185033    20.20324241     0.04464042     0.28623033     0.02240773
Si     4.53440588     7.92875887    14.02324356     0.32141578    -0.04720641    -0.01569936
Si     4.75944959     1.55707932    20.30380725     0.12288520     0.01278504    -0.17240679
Si     4.79470194     4.71996082    23.46453921    -0.00325038     0.02423102    -0.24282609
Si     4.67279623     4.84332678    17.17506499     0.07479089    -0.33748099     0.01793219
Si     9.45123094     6.27537443    12.47036197     0.09517860     0.29587078    -0.20501035
Si     9.41339258    -0.02346726    18.72846708    -0.09846778     0.07683933    -0.13070813
Si     9.34026294    12.70074293    12.57537292     0.20125264    -0.35012826    -0.10098472
Si     3.04955448     6.39212033    18.66055361     0.11607478    -0.32087910    -0.01881821
Si     2.98684154     6.41413686    12.41461824     0.12326273    -0.05975823     0.05098214
Si     3.29242663    12.68759245    18.59578207    -0.46210247    -0.09284249     0.18888170
Si     3.10949041     0.02136652    12.43614918     0.03840701     0.09056893    -0.02246648
Si    11.11262981    11.20901148    23.37175554    -0.19713974    -0.36836639     0.11607000
Si    10.96041820    11.11529567    17.19660197     0.21903643    -0.36597985    -0.13247077
Si    11.07813114     4.68994767    23.49023061    -0.00406654     0.02704963    -0.23591340
Si    10.90265476     4.63059243    17.17035400     0.38394272     0.22831079     0.02376075
Si     4.71541643    11.08449773    23.43563151     0.20332761    -0.04912684    -0.10687044
Si     4.72026265    11.00661185    16.97331665    -0.09089939     0.19886407     0.36826262
Si     4.63016373     1.74376696    14.01385881     0.17744119    -0.51557887     0.09331094
Si     1.43611627     4.89571778    14.01827780     0.53437912    -0.31253457     0.04669620
Si     9.47440647     9.35349237     9.35707931    -0.06976077     0.49053812     0.11739589
Si     9.56981191     9.42508525     3.08468052    -0.16474396     0.12616096    -0.02605497
Si    12.66903433     9.61553032     6.31255525    -0.18037969    -0.35565048    -0.32667059
Si    -0.02059524     9.50742193    12.35927788     0.03774858    -0.18795988     0.11060712
Si     0.05236619     3.13655291     6.14477916     0.01035111     0.00627270     0.17625284
Si    -0.00260856     3.14913423     0.16308205     0.15358233     0.11362957    -0.30725676
Si     7.89995513     7.91790786    10.95082812    -0.09136426    -0.27682459    -0.05373720
Si     7.98081770     7.89400150     4.55691096    -0.08835906     0.17481580     0.42494500
Si     7.86114856     1.59825600    11.01319541    -0.17733961     0.06768015    -0.18219784
Si     7.97735752     1.62426709     4.53111590    -0.20877475    -0.28284827     0.62186778
Si     1.52568441     7.88143356    10.73080944     0.06447744     0.27235746     0.38138002
Si     1.69414703     7.97919565     4.67888407     0.14356336    -0.16576186     0.21995544
Si     1.57112429     1.53471158    10.92604743    -0.09985910     0.22838037     0.10789652
Si     1.61941357     1.37177181     4.73055669    -0.13659549     0.67991990    -0.21303247
Si     6.48344163     3.07688333     6.29177853    -0.59171879     0.47165775    -0.27684906
Si     6.26562369     6.44538864     9.35399433     0.05200011    -0.25172472     0.14128636
Si     6.19195497    12.72175175     9.42197856     0.30789152    -0.07754596    -0.06980664
Si     6.33093365    -0.09578922     3.07601869     0.09505448     0.24613750    -0.06532507
Si     0.01386252     6.30023850     9.22514193     0.04570064     0.18851139    -0.03864423
Si     0.20048811     6.39470384     3.19198832    -0.29828787    -0.18292493    -0.11028142
Si    12.47362456    12.56569100     9.53904159     0.31528074     0.22089809    -0.44351953
Si    12.60232845    12.59893617     3.08681577     0.15671238     0.19224343     0.29217154
Si     7.85161154    11.11934764     7.84308359     0.05781019    -0.25322729    -0.24226883
Si     7.88261161    10.99576508     1.47758681     0.15838014     0.08958217     0.13101678
Si     7.87138698     4.72327183     7.82564808     0.35800952     0.10170273    -0.00276792
Si     7.89479006     4.91516603     1.59130440     0.07417777    -0.32609582    -0.01402726
Si     1.47584600    11.12956164     7.94009444     0.26291105    -0.10115762    -0.19927447
Si     1.61173037    11.15030046     1.58905587    -0.19102132    -0.31768286    -0.06026260
Si     1.61199846     4.86329101     7.62502112     0.18346195    -0.30258977     0.41225091
Si     6.36020084     6.47451608     3.07751087    -0.07942300    -0.44804296    -0.02041634
Si     6.29865424     9.40736496    12.55111984    -0.11679776     0.22930594    -0.21094620
Si     6.41051270     3.19972856    25.16289915    -0.21588099     0.00074000    -0.60830331
Si     6.40052775     9.53091742     6.18990277    -0.12296396    -0.15400605     0.17853770
Si     9.58180405     3.16962998     9.37918814    -0.41310531    -0.09255524    -0.06652629
Si     9.45552224     6.28604094     6.24441826     0.28023472     0.14173764    -0.34500498
Si     9.46602601     3.33213692     3.13477740     0.26059702    -0.24369889    -0.23986273
Si     3.14028603     9.52689999     9.31842393    -0.08034375    -0.16299826     0.06086032
Si     3.21465972     9.43439102     3.14305250    -0.00496319     0.34429401    -0.12897690
Si     3.10525437     3.36792945     9.31127558     0.04738743    -0.31122088    -0.03621945
Si     3.35780791     3.11587306     3.23090002    -0.41209090    -0.04561584    -0.09566690
Si    11.09346484     7.89882593     7.68002135    -0.14170435    -0.04957236     0.51468098
Si    11.13861130     7.92106863     1.56725813    -0.15528575    -0.00266906     0.01164185
Si    11.03233985     1.55723848     7.76661371     0.01081760    -0.06848010     0.19858810
Si    11.03508722     1.64779730     1.58820800    -0.06587904    -0.23939167     0.07388796
Si     4.75758949     7.98164013     7.79351524     0.23832251    -0.04459859    -0.10516122
Si     4.66874595     7.89563817     1.52076327     0.55328667    -0.07531633     0.07198719
Si     4.62409028     1.73223817     7.83100015     0.35540110    -0.38111430    -0.01348870
Si     4.77232529     1.58384844     1.60188913     0.18160158    -0.01965240     0.16496113
Si     9.42344953     6.31183143    -0.10943009     0.19993466     0.12275134     0.42597803
Si     4.87759967     4.74767915     4.72162131     0.30061573    -0.04159068    -0.06202472
Si     9.43468396    -0.08580706     6.21018210     0.20326191     0.38666612    -0.07814115
Si     9.46784281    12.65314610    -0.00109115     0.14915758     0.26792294     0.04362029
Si     3.42712885     6.32415490     6.22836624    -0.85439801     0.23808487    -0.03030160
Si     3.25234692     6.19188404     0.01541818    -0.34188756     0.42275232     0.43594688
Si     3.11587693    12.66560543     6.32612479     0.03928623    -0.11976103     0.10342041
Si     3.13757128     0.07983341     0.03176553     0.07201883    -0.07183098     0.03407411
Si    10.90250388    10.96809024    11.02794276     0.22836873     0.22649859    -0.35399485
Si    11.05816622    11.04586713     4.66932715     0.05310812    -0.02359587     0.04338177
Si    11.12817075     4.70491555    10.89299690    -0.01781113     0.06977709    -0.00137615
Si    11.15300334     4.80019496     4.66560280    -0.23582540    -0.08084929     0.09821065
Si     4.75088356    11.01446441    10.90426277    -0.26817751     0.25390869     0.15082932
Si     4.84082660    11.00984877     4.70316932    -0.25072247     0.11636588    -0.14639398
Si     4.63585058     4.88228552    10.91757434     0.02758615    -0.07594521    -0.15789425
Si     9.53147608     9.35876727    15.58539396    -0.16073628     0.35842150     0.15489000
Si     9.40240331     9.53548940    21.78042372     0.18839744     0.00116193     0.12978718
128
Lattice="9.880 0.000 0.000 0.000 9.734 0.000 0.000 0.000 20.417" Properties=species:S:1:pos:R:3:forces:R:3 energy=-606.50628662 virial="510.28240967 2.96845078 33.30072403 2.96845078 505.21054077 -17.57757378 33.30072403 -17.57757378 523.58789062"
Si     1.55304892     3.55710098     1.45722212     0.69371933    -0.85869986     1.83683705
Si     4.93347347     7.27844242    20.42027573     0.31274712    -1.44537222     0.00683031
Si     4.94886594     2.53664450    15.31925457     0.27639258    -1.32607603    -0.42241687
Si     4.57264791     2.80051481    10.20703809    -0.05781353    -1.02247858     1.58682370
Si     9.81791227     7.44422518    15.45539668    -0.17356086    -1.33575511    -0.15629736
Si     0.31927229     7.39620963    20.21582748    -0.98188078    -1.89597058    -0.55825317
Si    -0.04346413     2.34576789    15.47717164     0.77940834    -0.30415958    -0.97654140
Si    -0.34226295     2.42289351    10.28694786     1.86166000     2.16576886    -1.08200836
Si     6.14867414     6.06497544    19.03996320    -0.34995157     0.57304752     0.57033682
Si     6.06783405     5.82993769    14.01375450     0.34577122     0.58539861     0.90895998
Si     6.09840018     1.15791833    19.25466988     1.30193388    -1.20056367     0.43248957
Si     5.86212786     1.16702166    13.99503845     1.50508678    -0.64336610     1.83156013
Si     1.44298498     5.94199792    19.09421462    -1.92535830    -2.01506114     0.13782698
Si     0.97350460     6.19906401    13.92768242     0.51491427    -0.29229882     1.13433027
Si     1.20932078     3.62425360    16.67897277     0.58095706     0.49950024     0.18727982
Si     1.37982629     1.32156102    19.29124743    -0.05618617    -0.69239277     0.62689596
Si     4.95463148     4.78258490    17.81371039    -0.97585154     0.80104554    -1.21229792
Si     4.63870327     4.88524645    12.72791287     1.32032537    -1.49762988     0.13080254
Si     4.90341295     9.90006879    17.77171628     0.85165960    -1.05245972     0.57021117
Si     4.85904823     0.02136932    12.58324926     0.06228958    -1.08141112     0.01816387
Si    -0.07711192     4.78692994    18.00682075     2.04156375     1.13770068    -0.67641991
Si    -0.20145657     4.81869756    12.72990245    -0.93597436    -0.55288136     0.34311107
Si    10.03476329     9.83439478    17.84066105     0.35899597     0.10942331     1.33155954
Si     9.78301365     9.75272654    12.69948936    -1.21884263     0.08537666     0.12071586
Si     6.13618724     8.40728789    16.72873357    -1.52047634     0.54436886    -0.39235738
Si     6.02139987     8.33774111    11.53223598    -0.14865230    -0.74904644    -0.14916313
Si     6.13705865     3.35678663    16.72248207     3.11922550     2.50899482     0.68894380
Si     6.07408363     3.80637826    11.38063289     0.77852833     0.75453037     0.51475489
Si     1.33200930     8.46725766    16.63615471    -0.02205151     0.40147889     0.78337061
Si     1.14474928     1.11171469    14.01800243    -0.98546684     2.67302585    -0.62425876
Si     0.95048904     8.47910372    11.36337887     0.48445866     2.09098816    -1.78661394
Si     4.91898345     7.29204758    15.26917169    -0.85241669     0.56271583    -1.29393435
Si     7.47737371     4.79927116    15.35505019    -2.41806841    -1.30870879     0.56055945
Si     7.46611543     2.35495020    18.06779777     0.79360926    -0.98263979    -0.44722894
Si     7.09712020     2.34134038    12.69761170     0.60404098     1.33201623     0.14752391
Si     2.46604557     7.29901730    17.97383113     1.44949698     1.60754681    -0.34848925
Si     2.21047958     7.41059164    12.59407558     1.46093452    -1.24133158     1.50899994
Si     2.61610594     2.33663756    17.77712871    -0.71173137     0.13574016     0.21469843
Si     2.30976673     2.44412086    12.67878966    -1.18321264     1.44427752    -0.81807566
Si     8.74516306     5.94008163    16.59482429    -0.01065420     1.41656733     0.18439670
Si     8.35202874     6.16665618    11.53133926     2.04141927    -2.07990360    -0.70601451
Si     8.55044724     1.04944670    16.59517398    -1.75761485    -0.20197262     0.18579665
Si     8.44415183     1.19701318    11.45596249    -1.91794431    -2.52396631     1.86809587
Si     3.58564694     6.10533747    16.59647991     0.35237435    -1.47693729    -1.11571670
Si     3.44526481     6.01918297    11.47671881    -1.01322961     1.17240572     0.47756192
Si     3.73440023     1.16953716    16.36969592    -0.83701098     0.01459648    -0.92060888
Si     3.74364031     3.59695217    19.13648400    -1.28232098     0.89220417     1.03003323
Si     3.67582838     3.50981291    14.07856618    -2.35222816     0.70279229    -2.02791023
Si     7.52955425     4.87237373    10.04451883     0.30377787    -1.50789380     0.23658441
Si     7.20847370    -0.14989175    15.26176705     0.56939197     0.57614309    -1.22029603
Si     7.09786458     9.65929460    10.28554787     0.97157180     0.80373728    -2.03609037
Si     2.31571671     4.80367063    15.16897169    -0.41093862     1.50656939     0.35516381
Si     2.28039025     5.06683452    10.02859780     0.02266642     1.52183127    -0.45734185
Si     2.32607082     9.73117206    15.27405423     1.35869718    -0.88007879     0.69754130
Si     2.34549779     0.05214862    10.17791358    -2.49222851     0.09170529    -0.13304113
Si     8.75790669     8.60672251    19.23055275    -0.93182558    -0.01219130    -1.97478557
Si     8.64070094     8.38139534    13.97144203    -0.31622672     1.73465133     0.14853576
Si     8.75719803     3.57644020    19.27766079    -1.39831924    -1.18649149     1.54230833
Si     8.53711212     3.41511308    14.09452432     0.07949154    -0.34905452    -1.78217149
Si     3.87495202     8.50284841    19.09188111    -1.05850089     1.50467360    -0.40621984
Si     3.51724331     8.63347452    13.84032099     1.05172014    -1.39844894     1.30174792
Si     3.60995401     1.20602525    11.42420014    -0.29673553     2.10263634    -0.80968171
Si     1.00925051     3.91063080    11.15669087    -0.40672496    -2.59778070     2.47163200
Si     7.25691303     7.21815031     7.65846782    -1.36930764    -0.52078182     1.80843616
Si     7.51453308     7.27665982     2.45400438     0.78045386    -1.99200785     1.13840055
Si     9.83781074     7.22784829     5.17906108     2.23253655    -1.18522203    -0.97317636
Si    -0.27449352     7.26324865    10.17911721    -0.49977151    -0.77530169    -2.17151165
Si     0.01307338     2.31926739     5.26854795     0.29439396     1.32008517    -0.55764544
Si     0.15449338     2.58283868     0.26823796    -1.50976849    -2.36741042    -0.44341272
Si     6.06135918     6.05394604     9.06863540     0.28231949     0.74377525    -0.16113624
Si     6.26698950     6.21032500     3.94246899     0.96455228    -1.19214177    -3.67806196
Si     5.77197381     1.35651632     9.12999209     1.90854001     0.32601947     0.35534364
Si     6.23671195     1.14749442     3.97318430     0.58029306     1.12586999    -1.72312999
Si     1.06475144     6.20971586     8.72063516    -1.34573698     0.76685542    -0.27929649
Si     1.61623102     6.11318141     3.72598295    -2.50299954     3.29882622    -1.64362741
Si     0.95126820     1.34439222     8.95864129     3.33650780     1.65953624     0.50720251
Si     1.24423836     1.31982440     3.90451266     0.63222820    -1.80278230     2.55947781
Si     5.03115262     2.47186123     5.17141914     2.90701389     0.86759055     1.41420043
Si     4.95284034     4.88416097     7.69272320     1.39267850    -1.31446719    -2.42258477
Si     4.95019407     9.79938664     7.65270899    -0.43375218    -1.69225395     2.35485888
Si     5.24884065    -0.09971628     2.46805239     1.29489803     0.53112382     0.78714192
Si     0.06346042     4.82943623     7.32711240     0.62354910     1.08617783    -0.32499015
Si     0.22740359     4.78909409     2.59405702     0.65309852     1.12679672     0.28362635
Si     9.78148174     9.86201147     7.67304280     0.70208681    -2.52387571     0.91106510
Si    10.00336823     9.74239779     2.75125512     1.28890777    -2.13183308    -0.81212544
Si     6.21437305     8.60712076     6.48828725     0.58777869     0.52819121    -1.35451460
Si     6.32529938     8.36200191     1.17549411    -0.41391283     0.21217182    -1.38412249
Si     6.56230692     3.70664134     6.35818418    -1.98117447     0.57349145     0.40668499
Si     6.38007459     3.74640908     1.23223975     0.03996634    -0.49161923    -0.01279246
Si     1.11430592     8.45675575     6.59473785    -1.17703569    -0.82182312    -0.30597457
Si     1.24380015     8.43012929     1.32001405    -2.58392334     3.37303162     0.11771685
Si     1.38907420     3.68239954     6.11342611     0.52245635     0.64258736    -0.57185495
Si     5.13345971     4.86696167     2.57521218     2.53762507     1.53259683    -0.31805432
Si     4.72997632     7.19648622    10.27274024    -0.66477996     0.81243074    -0.65720159
Si     5.02616081     2.51071777    20.47738630    -0.19731012     0.88670897     0.68624276
Si     5.12853304     7.34575641     5.13815093    -0.70827836     3.83793068    -0.02483379
Si     7.37979062     2.27958905     7.75938717    -0.36585256    -0.60852683     1.47236037
Si     7.59946949     4.89870389     4.86195084    -0.14045197    -0.40213206     0.56265485
Si     7.57486494     2.46288001     2.51224802    -0.68212831    -0.95361018     1.25790429
Si     2.59210039     7.27320554     7.57448876    -0.05477458    -0.04152711     0.87070549
Si     2.73200057     7.60156731     2.36046621     0.79674411    -3.19439030     1.16180468
Si     2.47444375     2.53836864     7.53098834    -1.43839538    -2.64669442     0.92858744
Si     2.64631003     2.33194872     2.84153467     2.60313177     0.55629134    -1.79864836
Si     8.44933283     6.09999072     6.40082327     1.09134698    -0.89364731    -0.62703896
Si     9.02480042     6.15333213     1.32191381    -0.58256489     0.33366153    -1.75346684
Si     8.63967828     1.15609605     6.37970200    -2.67866516     1.51262081     0.79801488
Si     8.79142726     1.01493659     1.40407671     1.77161562     3.36299467     0.18390763
Si     3.93661811     6.23097648     6.32541743    -1.26268888    -2.52213860     1.05794108
Si     3.84398441     6.01208678     1.37894908    -0.91028219     0.43993449    -0.43203345
Si     3.87025858     1.28517387     6.41302342    -2.02659297     0.47247180    -0.07490773
Si     3.99787713     1.23581816     1.45118370    -1.97876954     0.87784141    -0.29477045
Si     7.51307706     5.01783792    -0.07239302     1.65210807     1.18127930     0.76721931
Si     4.05754520     3.65134191     3.80224797    -2.83710289     0.23628998     0.41692901
Si     7.55293019    -0.06373347     5.12892047    -0.86459166    -1.63410163    -0.60342848
Si     7.53714392     9.77123583     0.15767472    -2.40822864    -0.26694050    -2.94834709
Si     2.72073263     4.96056272     5.00434235     2.24836564    -1.45231581     1.45351565
Si     2.47788538     4.86130840     0.15571532     2.22331166     0.13010804    -1.53854895
Si     2.36023096     9.79526476     5.50524566     0.71122760    -0.03274363    -3.24194288
Si     2.68340212    -0.04923252     0.19367680    -0.14570217     0.29179698    -0.69123936
Si     8.45467191     8.55156895     8.78398621     0.08720672     1.14839554     1.72637737
Si     8.71106886     8.43407701     3.80973559    -0.28801942    -0.32453525     0.09372216
Si     8.82612458     3.70289714     8.71860703    -1.16476703    -0.71453840    -0.01541944
Si     8.89777625     3.60535883     3.85918125     0.07733709    -1.79315555    -0.54426694
Si     3.59963808     8.57314219     8.97702242     1.44796586    -0.02431085    -0.79787183
Si     3.96685016     8.52209553     3.71799780    -0.82211912     1.66751623     4.36512995
Si     3.45355686     3.88351381     8.81657418     0.06271391     0.01575123    -1.26171255
Si     7.25724689     7.24555662    12.84541355    -2.00221539     0.52871954     2.63585472
Si     7.49120952     7.26146870    17.84882037     2.45787191    -0.03107961     1.20191503
128
Lattice="12.155 0.000 0.000 0.000 11.928 0.000 0.000 0.000 25.197" Properties=species:S:1:pos:R:3:forces:R:3 energy=-620.85583496 virial="-319.59942627 0.36093232 0.33453619 0.36093232 -297.59735107 0.49592385 0.33453619 0.49592385 -366.62576294"
Si     1.90463352     4.36690357     1.82217582    -0.43110543     0.24169204    -0.39345884
Si     6.13613739     8.84912385    25.15188612     0.40073705     0.35604423    -0.00375835
Si     6.06026420     3.02564092    18.88163949    -0.36955076    -0.48856419    -0.07063249
Si     5.67156006     3.36151803    12.65550388     0.55074310    -0.77856457    -0.39928174
Si    12.07842937     8.98569667    18.98415160     0.05519159    -0.18560648    -0.22041871
Si     0.31081646     8.96007699    24.95803172    -0.44434118     0.05848618     0.77124113
Si    -0.09104218     2.87369935    19.03827326    -0.16916707     0.04047333    -0.44874680
Si    -0.37071049     3.07644786    12.60844273     0.71926165    -0.13224030    -0.36254734
Si     7.62373387     7.45016500    23.56524014     0.35434270    -0.06500715     0.15526825
Si     7.38642617     7.23863560    17.40263800    -0.00101158     0.43043572    -0.16243771
Si     7.57451476     1.43068171    23.74140272     0.38981965     0.17953917    -0.26133743
Si     7.34185614     1.37459481    17.34362935     0.31540072     0.18587303    -0.32212025
Si     1.70816357     7.24251391    23.55920960    -0.10971639     0.76769996     0.30913815
Si     1.25497721     7.51201166    17.29383402     0.23088172    -0.17308187     0.04123555
Si     1.51305140     4.46299213    20.56175591    -0.21904030    -0.36657786    -0.23017946
Si     1.74775640     1.50966110    23.84504022    -0.23075002    -0.11158028    -0.34969813
Si     6.05100866     5.91395433    21.97898976     0.21567318     0.04690985     0.30605307
Si     5.81712221     5.89282281    15.69555609     0.10100891     0.37685651     0.13136604
Si     6.09948281    12.02239585    21.92818266    -0.02468538    -0.45426074     0.38086814
Si     5.88158890    -0.03388765    15.59687034    -0.13815007     0.00002550     0.39529544
Si     0.01372404     5.86009718    22.15186915     0.28338003    -0.02866249    -0.16808301
Si    -0.29304379     5.90106655    15.76443679     0.16022387     0.20692804    -0.19795799
Si    12.28903742    12.02941565    22.14027553    -0.24449705    -0.47840801    -0.11566377
Si    11.93053761    11.93617609    15.68566533    -0.20408237    -0.10086713     0.01018482
Si     7.51972207    10.32469241    20.54206747     0.19176462     0.21939950    -0.49973559
Si     7.37291456    10.23404308    14.14967547    -0.30234724     0.62917316     0.15167981
Si     7.70758064     4.33918028    20.65371458    -0.40256119     0.00122689    -0.42832035
Si     7.48400306     4.64207634    14.08945000    -0.48785210    -0.58896923     0.19118257
Si     1.53931844    10.43274363    20.59470698    -0.07420646     0.05916167    -0.27842700
Si     1.34545684     1.53090420    17.25691125    -0.07040205    -0.32437676     0.00206080
Si     1.17132020    10.47400684    13.97541950     0.21246380     0.02334259     0.37814951
Si     5.93415424     8.94264259    18.80399851     0.00157009    -0.36113527     0.34001309
Si     9.08137677     5.74692412    18.92839221     0.02134874     0.25496668     0.11128687
Si     9.20554405     2.76810618    22.25942932    -0.36066836     0.50023025    -0.28546199
Si     8.75971418     2.93074727    15.73896332     0.47238636    -0.19399410     0.04702076
Si     3.14492099     8.93969719    22.09995180    -0.16967610    -0.17525533    -0.32465875
Si     2.74033567     9.03249945    15.67342454     0.03881020    -0.20442237     0.03709748
Si     3.12041364     2.88758623    22.00899138    -0.11811148     0.45200410     0.23680313
Si     2.71501601     3.04987045    15.52402171     0.32175559    -0.11252448     0.49099937
Si    10.71090157     7.35714880    20.47941169    -0.28018156     0.02574575     0.24072635
Si    10.31732484     7.45029266    14.22016678     0.34020251    -0.15675256    -0.14079496
Si    10.49452578     1.30375306    20.50126108     0.55953568     0.32192057     0.19982079
Si    10.21979975     1.37181822    14.21726249     0.29492959     0.45290706    -0.18953288
Si     4.46171861     7.41557201    20.35754373     0.11889224     0.15121339     0.15219736
Si     4.21102343     7.47846990    14.18509706     0.20105460     0.11936475    -0.33948195
Si     4.53250203     1.46216050    20.24681175     0.03466581     0.02822542     0.69998741
Si     4.57700492     4.46869931    23.63037381     0.41170233    -0.11290877     0.01307875
Si     4.29308612     4.39315086    17.23119783     0.19641149     0.35300809    -0.08345412
Si     9.15459624     5.92069264    12.44770984    -0.76642382     0.34929159     0.35271978
Si     8.93946444    -0.17114665    18.83789889     0.12855099     0.34419858     0.29669303
Si     8.75775923    11.88064386    12.57241027     0.15091226     0.10359874     0.40265262
Si     2.82804922     5.98650092    18.79926370     0.20590605    -0.11307755     0.23343047
Si     2.72004403     6.25690957    12.34117296     0.03531290    -0.65239972     0.30858487
Si     2.90217144    11.87549742    18.82045606     0.28831172     0.29602164    -0.02357020
Si     2.75477851     0.09183079    12.52464320     0.27396363     0.09377116     0.00136630
Si    10.79956168    10.50582595    23.59068365     0.03755976    -0.35696721     0.07551531
Si    10.54453891    10.38384477    17.29392927    -0.41645464    -0.03921819     0.33589476
Si    10.72309610     4.36743816    23.85185120     0.27965146     0.23671255    -0.40224901