128
Lattice="10.967 0.000 0.000 0.000 21.985 0.000 0.000 0.000 10.994" Properties=species:S:1:pos:R:3:forces:R:3 energy=-687.33239746 virial="-22.05821228 -5.53507662 0.71065599 -5.53507662 -25.37393379 -0.74459505 0.71065599 -0.74459505 -25.05418015"
Si     1.27326223     4.10592226     1.51425076     0.50026357     0.05310793    -0.31286454
Si     5.53019888     5.44515330     2.75318503    -0.42277265     0.44756633     0.05167207
Si     1.40273572     4.07064944     6.92369828    -0.33630461     0.08781444    -0.11046873
Si     1.47595015     9.59062062     1.45200228    -0.36799437     0.04488411    -0.35977790
Si     1.37906917     9.71242788     6.76290793    -0.20080326    -0.14632177     0.47969240
Si     6.86516845     4.19323109     1.35054014     0.09694378    -0.56643438     0.06627764
Si     6.71156726     3.96497643     6.91368981     0.61506987     1.46932197    -0.03544474
Si     6.89497862     9.57172802     1.44749182    -0.27666810    -0.16929179    -0.55676782
Si     6.97243315     9.50409221     6.90819663    -0.32068688     0.19915311    -0.19200413
Si    11.10635989    11.02844006     2.73910569    -0.22232106    -0.06867892     0.38045442
Si    11.00825873    11.06415666     8.25529099     0.07627349    -0.15231805    -0.31778678
Si    -0.01696300     5.52533610     2.87335789    -0.37532276    -0.16854851    -0.39362192
Si    -0.03458830     5.37555660     8.38015331     0.17723341     0.58513987    -0.26045841
Si     5.51168661    -0.00992094     2.88696099    -0.29185373    -0.09933284    -0.75994831
Si     5.39743146     8.18774309    11.00036034     0.25631261     0.36541289     0.26941851
Si     5.59457024    10.88748290     8.26555845    -0.53916323     0.34584582    -0.18848991
Si     5.44887327     2.71529197     5.47522892    -0.01207560    -0.46125323    -0.11432577
Si     1.37165519     1.42416073     4.13036814     0.14646587    -0.43651491    -0.02009544
Si     1.32970772     1.37335415     9.63483043     0.14900747     0.12703064    -0.03479665
Si     1.25042328     6.85397946     4.28865854     0.19227116     0.30960000    -0.25579450
Si     1.28868370     6.94368707     9.69917252     0.07458651    -0.32172480    -0.38239416
Si     6.92954602     1.30855870     4.17661418    -0.18886848     0.73468673    -0.15554479
Si     6.89987952     1.42478430     9.69448769    -0.26778281     0.12371653    -1.08767819
Si     6.92762621     6.82742862     4.13944095    -0.15823491    -0.01275485    -0.33508688
Si     6.83271394     6.93352577     9.64732811     0.03382001    -0.28024274     0.04937402
Si     0.01081626     2.75952142     0.07324681    -0.06499323    -0.05561744    -0.16550554
Si    -0.02668047     2.76255513     5.46822603     0.26994553    -0.08786254     0.45413703
Si    -0.06141375     8.34818174    11.10107153     0.77330434    -0.07800852    -0.41465682
Si    10.80059523     8.34987754     5.58797389     0.66275811    -0.64202559    -0.12965120
Si     5.40578640     5.61156252     8.26582848     0.30119315    -0.75226551    -0.23343086
Si     5.53302016     2.79887181    -0.05801375    -0.51527894    -0.00767161     0.42216843
Si     5.57540268     8.30089886     5.35640242    -0.49759024    -0.33400947     0.71140611
Si     8.27124406     2.86050827     8.23447518    -0.20535114    -0.64464897     0.79260522
Si     4.06504153     4.06844360     9.53969556     0.03926697     0.47764963     0.45935619
Si     4.05070519     9.57613798     3.99154440     0.44112399     0.02110231     0.19472720
Si     4.10114643     9.59285291     9.59330562    -0.18178263     0.07051717     0.03181179
Si     9.52887379     4.04060784     4.06264918     0.29072270     0.35179532     0.42739975
Si     9.52985534     4.12887274     9.83841311     0.08211344     0.18708454    -0.70436895
Si     9.62176070     9.68873578     4.08399448     0.11125174    -0.48358697    -0.40635395
Si     9.70082141     9.74857565     9.65660152    -0.27316052    -0.76105028    -0.06206659
Si     2.68522180     0.03634663    -0.02605121     0.35185254    -0.43727490     0.12878673
Si     2.73418407    -0.06517916     5.50916536    -0.21912590     0.14163223    -0.13504712
Si     2.58235592     5.40588682     0.00639846     0.45903528     0.09523270    -0.19467881
Si     2.69653582     5.48962468     5.52845440     0.29589671    -0.11832356     0.05558469
Si     8.33529590    10.89295510     0.11694536    -0.43373376     0.71437907    -0.21506277
Si     8.35791887     0.12001385     5.57230878    -0.29669869    -0.52714431     0.02650390
Si     4.12413756     4.11913244     4.11179518    -0.05878894     0.16903704     0.27216545
Si     8.21315497     5.65144387     0.11266181    -0.13329771    -0.51914829    -0.52152705
Si     4.14296089     1.34499950     1.30465278     0.09032160     0.30506858     0.57116991
Si     4.11496254     1.28821130     6.86399403    -0.06311795     0.33452123    -0.41646284
Si     4.02816041     6.73825055     1.31203738     0.27593803     0.11091533     0.39737892
Si     4.10750401     6.92361797     6.79853499    -0.06781066     0.20337299     0.08486678
Si     9.58813058     1.41144599     1.35300283     0.04873196    -0.62547064    -0.24830821
Si     9.73286252     1.43423005     7.06914249    -0.48715550    -0.04554652    -0.91554689
Si     9.64358023     6.92944837     1.39046479     0.15102950    -0.46055475     0.33952108
Si     9.56481250     6.77104650     6.94928517     0.17206895     0.19353384     0.00520302
Si     2.79088599     2.76783273     2.77558338    -0.18816915    -0.36180723    -0.32309997
Si     2.78508547     2.63027715     8.20604566    -0.43950111     0.33323318     0.22486904
Si     2.65585980     8.03072191     2.75237980     0.37951773     0.63166547     0.19944611
Si     2.65496141     8.29175042     8.18994861     0.30277929    -0.21061805     0.12696795
Si     8.24785143     2.69472319     2.65906340    -0.70403564     0.35437173     0.53179520
Si     8.23010832     5.40733922     5.50111726    -0.39528582    -0.12175765     0.43662244
Si     8.28658354     8.19348122     2.70713225    -0.22959833     0.41856456     0.79318392
Si     8.34738880     8.22103307     8.39303309    -0.31552964     0.12350021    -0.53696334
Si     1.40398084    15.27878214     1.40696699    -0.16333956    -0.53428024    -0.64278126
Si     1.39279897    20.59106380     1.40871707    -0.20092170     0.10125072    -0.46510804
Si     1.33970165    20.53326529     6.86285374     0.03820945     0.38037300    -0.10137088
Si     6.96155218    15.02882363     1.46181756    -0.28510901     0.24864019    -0.55226827
Si     6.89594901    15.04215634     6.85695247    -0.14353566     0.19421934    -0.03405664
Si     6.85412603    20.64996115     1.40535173    -0.31104618    -0.14814645     0.14566025
Si     6.81136045    20.71944082     6.83876658     0.37844419    -0.34374648    -0.03198134
Si    10.97789311    22.03332916     2.69600852     0.15012333    -0.03960092     0.19285049
Si    10.98930396    21.90382750     8.32627870     0.00882299     0.13314053    -0.08450725
Si     0.02898734    16.56488532     2.78244396    -0.25673822     0.01899359    -0.34224689
Si    -0.21223808    16.62934822     8.24368822     0.62660718    -0.49893898     0.05340603
Si     5.56650774    10.99421472     2.73388494    -0.47145766     0.00490373     0.22150949
Si     5.47971730    22.03910450     8.23121893     0.20809814    -0.17554104     0.43374002
Si     5.54730500    16.48790776     2.68763073    -0.17629963    -0.32949609     0.39744264
Si     5.55889691    16.39222744     8.30961580    -0.00838205     0.34788072    -0.06006701
Si     1.41423426    12.51211925     4.10541536    -0.15764533    -0.39693919    -0.06385872
Si     1.35464205    12.39674242     9.64097753     0.31303188     0.32594898    -0.27754775
Si     1.46709878    17.85201946     4.10829106    -0.61472774     0.27272296     0.32930997
Si     1.31388506    17.86101155     9.60130551     0.13469675     0.18662512    -0.43458343
Si     6.85135524    12.39830213     4.22692639    -0.05784867    -0.23809129    -0.76460028
Si     6.85622902    12.26443097     9.71303951     0.61293745    -0.15980101    -0.33937657
Si     6.87145514    17.88103553     4.07401986    -0.03198077    -0.15757191     0.06639621
Si     6.82866300    18.00345861     9.66130305    -0.05091992    -0.58119977    -0.19484940
Si     0.05392250    13.84448950    -0.03247155     0.13306151    -0.27715498     0.52781785
Si    -0.17110825    13.72093593     5.48891817     1.01660705     0.39778435     0.09217432
Si    -0.01419266    19.23401075    10.93089102     0.22112873     0.13256399     0.62062585
Si    10.91529277    19.33192780     5.38723816     0.43244180    -0.43629473     0.04113989
Si     5.60831026    13.73060033    -0.01638376    -0.61355495     0.02199847     0.24941497
Si     5.36796172    13.82662987     5.41952548     0.42925453    -0.46493733     0.51360959
Si     5.38835140    19.39111748    10.99920208     0.40632573    -0.56602740    -0.09924632
Si     1.17540147    15.19329089     6.92878720     0.19123286    -0.48124671    -0.27017474
Si     5.51228928    19.12376004     5.54931003    -0.22986954     0.45294669    -0.13937710
Si     4.11467479    15.05815508     9.62412815     0.05257120     0.14914861    -0.00032360
Si     8.21894570    16.51315961     5.44751414    -0.02998389    -0.10456654     0.22512877
Si     4.10437752    20.53533665     4.15997400     0.19725281    -0.02304420     0.02613820
Si     4.03722260    20.63540272     9.50428349     0.10730909     0.13679805     0.41588086
Si     9.62497300    15.17107878     4.09444325    -0.39938003    -0.32690901    -0.15464436
Si     9.58198434    15.06603622     9.64944300    -0.41598123     0.44826376    -0.48352861
Si     9.56833416    20.71135595     4.03058932     0.08445603    -0.17354903     0.30036810
Si     9.55993171    20.62145351     9.71601755    -0.10976887     0.21589032    -0.53520942
Si     2.69863848    11.01085073    -0.01927171     0.52155507    -0.33939731    -0.01447989
Si     2.77219164    11.02386000     5.37502928     0.01297619     0.11645906     0.36165065
Si     2.74042736    16.56004419    -0.07400450     0.23611532    -0.41337782     0.18129562
Si     2.66288564    16.40691786     5.57355588     0.22032684     0.21706414    -0.47692662
Si     8.12140578    21.99837286     0.00146354     0.84812760     0.01139434     0.40326431
Si     8.20043514    10.87150373     5.40676122     0.04294752     0.84699094     0.99896419
Si     8.18765015    16.45823020    -0.01368351     0.01707362     0.14103803     0.01992202
Si     4.18817746    12.30496430     1.27534386    -0.09407885     0.34436315     0.25155663
Si     3.98654662    15.13292559     4.00142861     0.49520713     0.10665184     0.26927531
Si     4.12719916    12.33515729     6.88648911     0.04013363     0.10089380    -0.27019531
Si     4.20682140    17.79265476     1.31485459    -0.54099530     0.69768369    -0.02319992
Si     4.14382416    17.66799821     6.91294069    -0.04104593     0.63808900    -0.15114076
Si     9.76487297    12.34931351     1.36491785    -0.40425333     0.06380069    -0.13569333
Si     9.56770779    12.34146299     6.90273168    -0.15357959    -0.51072776    -0.50796771
Si     9.57143544    17.87382941     1.26989711     0.27975222    -0.17355558     0.49866062
Si     9.55063801    18.00078427     6.75367264    -0.41345757    -0.14471133     0.45894802
Si     2.74251292    13.74905804     2.55489473     0.12980622    -0.02396691     0.60901517
Si     2.69514626    13.79217834     8.17921408     0.03906030    -0.28227276     0.34262088
Si     2.77052998    19.20069909     2.71016518     0.35735938    -0.05962516     0.02205307
Si     2.74292456    19.17490601     8.16222842    -0.06607811    -0.19230218     0.30181423
Si     8.31991207    13.59301348     2.73130663    -0.07252586     0.65433186     0.51266718
Si     8.23708442    13.60852596     8.27627932    -0.34018588     0.56760758     0.19310063
Si     8.26579695    19.21020027     2.69754592    -0.26410785     0.39981565     0.08100519
Si     8.18128489    19.38030742     8.25121833     0.06950413    -0.45190465    -0.19560069
128
Lattice="11.182 0.000 0.000 0.000 21.892 0.000 0.000 0.000 10.652" Properties=species:S:1:pos:R:3:forces:R:3 energy=-679.32110596 virial="-12.17193222 12.80157948 -7.29431391 12.80157948 9.31967258 -2.65335512 -7.29431391 -2.65335512 37.90250397"
Si     1.47028685     4.07059815     1.41053379    -0.94867992     0.01938093     0.21251918
Si     5.46761070     5.51259785     2.79362030     0.74976194    -0.87440121    -0.44775176
Si     1.31882226     4.15556413     6.78550980     0.18792301    -0.16339979    -0.04229510
Si     1.56982788     9.61784653     1.38499728     0.33221775    -0.16449261    -0.03717585
Si     1.38957441     9.64505025     6.61437997     0.39069793    -0.05776331    -0.28843063
Si     6.92748643     4.02202870     1.32168933    -0.69589806     1.19745421     0.24122103
Si     7.00135233     4.35493257     6.80520961    -1.64075422    -3.79682541     1.24769473
Si     6.93663062     9.44732259     1.23474812     0.67499900     0.95115930     1.36489558
Si     6.97140206     9.47166390     6.68052606    -0.12873043     0.30488867    -0.14748609
Si    11.40532308    10.95834617     2.79468186    -0.86161649     0.00356516    -1.17453051
Si    11.29425105    11.05725228     7.91827749    -0.52449620    -0.26019001     0.83633721
Si    -0.12786659     5.29849105     2.89310486     0.83704633     0.68831503    -0.40283382
Si     0.01257131     5.62799661     8.08784680    -0.64968824    -2.98513722    -0.09185261
Si     5.47749147    -0.04337996     2.62012721     0.97185683     0.38251150     1.52504921
Si     5.40861219     8.21728411    10.78000962     0.06093096    -0.73846686    -0.86551553
Si     5.46897545    10.93096843     7.86826094     0.96772408    -0.41739309     0.56431854
Si     5.55950841     2.62187918     5.29858753    -0.04000296     1.51173806     1.11761928
Si     1.48986973     1.23610980     4.01371455    -0.79193938     1.59374952    -0.23262943
Si     1.40578861     1.41167961     9.48852282    -0.15727043    -0.46526197    -0.50391358
Si     1.33022604     6.86405704     4.18320520     0.62536550    -1.15470624    -0.79127353
Si     1.36724685     6.87644669     9.14150728     2.01958251     0.23694700     1.99733806
Si     7.01391111     1.46386780     4.04317144    -0.32122144    -1.79039943    -0.19063091
Si     6.87359001     1.48691835     9.22519757    -0.50654781    -0.92105424     1.73355520
Si     7.04338218     6.74943997     4.01586920    -0.39414319     0.09792313     0.56925786
Si     6.84869122     6.83387319     9.44100707     0.34649187     0.29736993    -0.37316078
Si    -0.05526490     2.77824078     0.06629570     0.14048442    -0.09541604     0.29061040
Si     0.11951771     2.61487777     5.48437820    -0.14950448     0.31430927    -0.60321045
Si     0.35256020     8.21852599    10.60597293    -1.89164579     0.23669130     1.22985196
Si    11.17541365     8.07675365     5.49665281    -0.36355478     1.37060523    -0.39793739
Si     5.48167009     5.49413875     8.00705539    -0.30670276     1.18830848     0.25723553
Si     5.34664813     2.81532439     0.08156266     1.67683673    -0.06694535    -1.01616955
Si     5.55753692     8.06013344     5.34976167     1.54878163     1.05284476    -0.74156463
Si     8.40137705     2.78273059     8.26092562     0.10606320     0.36984235    -2.31103373
Si     4.13096416     4.23178572     9.37797457    -0.08948340    -1.15416610    -0.72465515
Si     4.36841395     9.48552473     4.00024689    -1.03965282     0.48335043     0.30170080
Si     4.16951841     9.47645327     9.17963418     0.45200551     0.12076524     0.35301542
Si     9.72843902     3.95321130     4.32319887    -0.15668951     0.19964752    -0.93585420
Si     9.75510065     4.19932988     9.40093576     0.40983641     0.20141284     0.52380562
Si     9.95147681     9.53056758     3.96400965    -0.49297020     0.47745961     1.43787098
Si     9.93509281     9.50303519     9.38868275    -0.21549574     0.70374781    -0.23110233
Si     2.87236749    -0.07440897     0.04323127     0.27644217     1.34779072    -0.13326070
Si     2.68315634    -0.16755667     5.17460155     1.54584742    -0.24437545     0.92692995
Si     2.75161964     5.42277937    -0.00388840    -0.86971855     0.90334415     0.26278815
Si     2.80629583     5.45947425     5.51232729    -0.52149737     0.15307666    -0.60480708
Si     8.51617390    10.95550768     0.18363772    -0.29922953    -0.84471297    -1.27917457
Si     8.44683090    -0.03529308     5.40319298     0.16491711     0.95208770    -1.20281243
Si     4.12375918     4.11412156     4.12623293     0.09622384    -0.54375756    -0.42297214
Si     8.30438742     5.49093079     0.08851739     0.46969143     0.40248775     0.37751949
Si     4.28611835     1.45919398     1.48802359    -0.85438871    -1.34881496    -1.32551193
Si     4.04990569     1.29007885     6.47140029     0.11408114     0.08340064     1.31916749
Si     4.07474740     6.69623605     1.41636157     0.16374131     0.85000366    -0.10863874
Si     4.11241955     7.03931641     6.60564752     0.04960395    -2.13480520     0.94295174
Si     9.79512879     1.26885247     1.36509158    -0.07605688     1.31627965     0.66202557
Si     9.77495725     1.38374010     6.65820931    -0.14967072     0.00532545     1.26592827
Si     9.86957870     6.89055829     1.51666246    -0.32225361    -0.11675267    -0.49124682
Si     9.86592533     6.69715455     6.78292993    -2.01298928     1.27720201    -1.09751368
Si     2.81817275     2.59689321     2.64517109    -0.62639612     1.39735913     1.25560975
Si     2.68077891     2.76415577     8.06832280     0.86164701    -0.27511221    -0.32625884
Si     2.87183197     8.14402049     2.84103560    -0.66879034     0.05440196    -0.58092129
Si     2.73156690     8.18775193     7.91161366    -0.18215571     1.05652928     0.05803304
Si     8.20575842     2.86056177     2.75453919     1.88384199    -0.84426320    -0.18301654
Si     8.27132464     5.39457552     5.51606597     2.38420510     1.75758862    -1.93912125
Si     8.35131658     8.29467491     2.90150944     0.15354526    -0.54214376    -1.68598819
Si     8.40533375     8.16899502     7.99517710     0.10101260    -0.13422501     0.81041539
Si     1.46876756    15.14739635     1.06988908    -0.04706604     0.11366770     1.27668297
Si     1.46731428    20.57880228     1.26328297    -0.00811130    -0.90191066     0.88493848
Si     1.39595724    20.50453727     6.58611055    -0.36434337    -0.50158197     0.62021303
Si     7.08462778    14.97301819     1.18711384    -0.17609440     0.00285551     0.90477014
Si     6.95251104    15.01350428     6.62050052     0.10859033     0.13837461     0.03144124
Si     6.78174711    20.52611897     1.36009068     1.32825708     0.25974032    -0.90624392
Si     7.11477995    20.55667542     6.61482754    -2.03515935     0.14249766     0.16042209
Si    11.35412672    21.91623285     2.64938249    -0.98387975    -0.29609865    -0.38307950
Si    11.23597375    21.90641341     8.02174249    -0.18178365     0.13057971    -0.10443226
Si    -0.05190165    16.45600713     2.52387140     0.87601531    -0.26066035     0.64191747
Si    -0.15645763    16.45737156     7.86178661    -0.20533466     0.28754187    -0.12056128
Si     5.45870771    10.91211031     2.58703842     0.98010653    -0.65225196    -0.39287177
Si     5.52486222    21.86536298     7.97699031     0.16674730     0.36627471    -0.74070400
Si     5.66862265    16.29362997     2.56095176    -0.46290502     0.89913726     0.03487273
Si     5.72483697    16.41036787     7.99438267    -1.07747817    -0.39126602    -0.61023307
Si     1.51356940    12.45972123     3.91107848     0.30189109    -0.21901557     0.29754883
Si     1.60135740    12.48663147     9.25266282    -1.30602801    -1.28635645     0.96842754
Si     1.30114898    17.90698867     3.99166054     1.11139393    -1.40528870    -1.37524068
Si     1.31043378    17.85780841     9.07874208    -0.28925964    -0.65565324     1.44413018
Si     6.90575531    12.19202707     3.77727293     0.84142411     0.52402949     1.47217155
Si     7.12133060    12.11114543     9.25341481    -0.87664032     0.59413296     0.62458491
Si     7.04029439    17.77141798     3.94348959    -0.37001270     0.11327823    -0.17315182
Si     6.96712226    17.70026435     9.33888297     0.16218409     1.26001668    -0.66485941
Si    -0.02486359    13.76132710     0.01132617    -0.04623806     0.08355764    -1.44270360
Si     0.14445878    13.78403823     5.20850538    -1.85725856    -1.10544944    -0.13795272
Si     0.02252445    19.23627780    10.69949653    -0.42252910    -0.35252729    -1.09748363
Si    11.18624575    19.17007680     5.20568043    -1.20483208     0.66122639     1.26394188
Si     5.59421935    13.59024387     0.05072969     1.07484388     0.10514888    -1.27909184
Si     5.71202144    13.52953843     5.40902260    -0.32929265     0.51375097    -1.46951032
Si     5.66628763    19.15938492    10.51115748    -0.63456887     0.42405522     0.35218042
Si     1.26528328    14.97938855     6.66192924     1.11179435     1.31498098     0.41440690
Si     5.61788125    19.12445590     5.36592080     0.63323843    -0.29939806    -0.10335210
Si     4.35545097    14.94867636     9.23129312    -0.44523591     0.52832747     0.27972138
Si     8.31866819    16.35977564     5.33902701     0.15009646     0.39499623    -0.53103888
Si     4.28364596    20.40781262     4.04232720    -0.50082672     0.57625902    -0.44186789
Si     4.14640237    20.50216149     9.30266348     0.15253592    -0.39991194    -0.50977618
Si     9.75617384    15.11733388     3.96305515     0.54024971    -0.09581068     0.12869649
Si     9.50208588    15.19393051     9.17736592     1.58099675    -0.61240327     0.84276593
Si     9.85386373    20.61600620     3.93061816    -0.33994323    -0.10548286     0.10166168
Si     9.67264600    20.57965141     9.21829576     0.67600763    -0.19524845     0.84575903
Si     3.00770090    10.87094071    -0.10693044    -1.03257918     1.06798077     0.68393850
Si     2.88296167    11.03211133     5.21027217    -0.38177478    -0.88855028    -0.01180054
Si     2.90868740    16.47584689    -0.21048423    -0.42868054     0.19205555    -0.19370359
Si     2.66590008    16.42387687     5.25823199     0.58640832    -0.29089433     0.34262711
Si     8.41434776    21.92053149     0.06607306    -1.30908418    -0.17950347    -0.78893745
Si     8.29183194    10.96769933     5.41534150     0.11425248    -0.98656541    -1.51590312
Si     8.31373856    16.53510484    -0.01421587     0.81848317    -0.56937295     0.61767280
Si     4.24384677    12.40799538     1.37587445    -0.61052382    -1.00606704    -0.60307306
Si     4.26450389    14.98854225     4.04206895    -0.06633374     0.38536450    -0.27883986
Si     4.19712247    12.32730993     6.55270894    -0.21842039    -0.04989143     0.65282696
Si     4.16743362    17.97189172     1.14674548     0.77799886    -1.81489420     0.37872350
Si     4.23795509    17.70378162     6.61817794    -0.16998467    -0.23927099    -0.11271623
Si     9.90354106    12.35842160     1.35798316     0.17588004    -0.23897657     0.80796218
Si     9.73815667    12.22427664     6.58373072     0.73697656     1.57795274     0.49537492
Si     9.77604530    17.82606098     1.36370523    -0.59131992     0.81620419    -0.62178349
Si     9.48437367    17.95679986     6.56304280     1.80916023    -0.84726655    -0.28126189
Si     2.86966225    13.76981543     2.55757109    -0.42165107     0.56668997     0.06676653
Si     2.85603700    13.71667574     7.90425135     0.39184064     0.48105708    -0.56105500
Si     2.95215128    19.11944402     2.64900671    -1.37574816     0.45283043     0.10944687
Si     2.80859080    19.01520688     7.88235668     0.28469348     1.25312495    -0.14372925
Si     8.44314169    13.67654962     2.73379323    -0.29600126    -0.23455493    -0.93556750
Si     8.23444745    13.71875891     7.97821651     0.88546193    -1.03436005    -0.41089177
Si     8.32775868    19.35693372     2.60954833     0.42433113    -1.08324838     0.32344273
Si     8.24462572    19.21965202     7.95265144     0.45149198    -0.45384055     1.12036681
128
Lattice="11.039 0.000 0.000 0.000 21.933 0.000 0.000 0.000 10.878" Properties=species:S:1:pos:R:3:forces:R:3 energy=-687.29541016 virial="-19.93773460 -4.85334349 1.99912047 -4.85334349 -12.10217476 -0.28197050 1.99912047 -0.28197050 -2.97187328"
Si     1.29910984     4.12435428     1.44901616     0.51586330    -0.07881074    -0.07207437
Si     5.44965185     5.40057881     2.85809773    -0.16995165     0.73088247    -0.04220251
Si     1.35764296     4.11018258     6.90208482    -0.22290027    -0.24425134    -0.11576687
Si     1.54523263     9.63179611     1.37727665    -0.85903603    -0.06901186     0.06784438
Si     1.38979959     9.66613966     6.75987819    -0.21020952    -0.19830739     0.53130090
Si     6.79813950     4.16675983     1.48027742     0.70584154    -0.74340606    -0.25914291
Si     6.83288208     4.00820463     6.98611154     0.31550306     1.78054404    -0.32773110
Si     6.95082750     9.59891803     1.38851878    -0.04585212    -0.62063903    -0.57560229
Si     6.88074617     9.60438991     6.81098808     0.44006988    -0.16101816     0.06657390
Si    11.08918169    10.93655075     2.71290193     0.05079395     0.17259124     0.30012840
Si    11.04062213    11.00514333     8.20195379     0.05531856    -0.09434026    -0.50310540
Si     0.00437284     5.39248578     2.86221238    -0.50326931     0.26322412    -0.10836521
Si    -0.04949331     5.44985986     8.20393668     0.13002488     0.85858399     0.30055916
Si     5.58095819    -0.02850627     2.79128882    -0.74460220     0.01963913    -1.10377753
Si     5.45001113     8.16387261    10.90364900     0.35880753     0.60441387     0.44012779
Si     5.52732802    10.93853672     8.15189442    -0.26711047     0.19690031    -0.35055259
Si     5.49131600     2.80362094     5.64412225    -0.37045228    -1.01417089    -0.97453690
Si     1.35110246     1.35699025     4.12901163     0.17490044    -0.51799524     0.05807017
Si     1.36904845     1.35528818     9.59270617    -0.08579376     0.23965792     0.07120320
Si     1.43670235     6.72536431     4.08510545    -0.39141077     0.98435813     0.43221223
Si     1.54279949     6.86717572     9.57333490    -1.32231200     0.24311537    -0.33113694
Si     6.79516489     1.32205829     4.13242440     0.43817365     1.14188361     0.25648955
Si     6.73571561     1.34209054     9.60816148     0.45905936     0.27973911    -1.01581132
Si     6.87953751     6.80572416     4.14429941     0.30304575     0.00191083    -0.19018014
Si     6.86917535     6.86204290     9.60894548     0.07389495    -0.23964861     0.24248667
Si    -0.03870876     2.74570642     0.11168273     0.03947376    -0.04208058    -0.27960482
Si     0.02381759     2.63310822     5.57958729    -0.19306323     0.33884561    -0.01160276
Si     0.05631127     8.18472820    11.03402217     0.19243881     0.17685455    -0.66944587
Si    11.10961138     8.21880560     5.49558841    -0.13951211    -0.36883992    -0.05374061
Si     5.42456042     5.56664886     8.31415450     0.64993238    -0.98577660    -0.23231673
Si     5.47163293     2.75504325     0.00600462    -0.36382484     0.29111975     0.71195412
Si     5.58646349     8.17180827     5.49964985    -0.70216256    -0.11837715     0.24424200
Si     8.23068409     2.73052323     8.21792262     0.16597627    -0.23049301     0.96070260
Si     4.04803773     4.11146994     9.53836506     0.13780361     0.36327511     0.76050347
Si     4.18595995     9.58929843     4.19776918     0.31319445    -0.28377116    -0.65198219
Si     4.18781331     9.58696556     9.49822862    -0.34001487     0.17268130     0.27579814
Si     9.68349866     4.04007335     4.28001892    -0.04064775     0.26704988    -0.29438332
Si     9.64341133     4.15629082     9.64642275    -0.29404593    -0.26742896    -0.24136120
Si     9.70261001     9.59503240     4.26702348     0.37864557    -0.42582369    -1.63560796
Si     9.73112114     9.54074861     9.53073161     0.05435142    -0.09082491     0.22084469
Si     2.84758487     0.03955981     0.01258104    -0.63894641    -0.74510533    -0.31216568
Si     2.82853313    -0.10054053     5.45838548    -0.69659644     0.40185156    -0.14500073
Si     2.71271182     5.56574482     0.15604604     0.39762098    -0.71224141    -0.17234029
Si     2.69144232     5.44230518     5.52608595     0.41064408    -0.11262484     0.13153377
Si     8.34363511    10.88424348    -0.05629958    -0.12324525     0.57837355     0.48928148
Si     8.23972465     0.02618471     5.34209615     0.12653530    -0.38700819     1.03994429
Si     4.07980768     4.05347286     4.21588875     0.23317465     0.37638062     0.14849977
Si     8.25681185     5.52989717     0.15923502    -0.15685040    -0.24336992    -0.31436917
Si     4.06135781     1.37056024     1.39513199     0.69852424     0.45202914     0.66818178
Si     4.01346197     1.39621520     6.86864183     0.34325755    -0.09115385    -0.50434601
Si     4.08375683     6.92746845     1.50846535     0.35866714    -0.55567378    -0.12367445
Si     4.09654939     6.74087989     6.90244613     0.01602132     1.07048428    -0.64811790
Si     9.58872599     1.45272243     1.48626573     0.28606009    -0.85730112    -0.81371391
Si     9.56860544     1.35100556     6.89867632     0.06392463    -0.06465002    -0.53702831
Si     9.67994523     6.82338216     1.49233984     0.19441161     0.03936285    -0.01148297
Si     9.56430893     6.99206713     6.83904300     0.76433831    -0.65605795     0.43754944
Si     2.69058029     2.81634831     2.86892282     0.09508699    -0.74267733    -0.73374307
Si     2.72804553     2.73600454     8.22837645    -0.40998319     0.01612085     0.13377608