128
Lattice="10.949 0.000 0.000 0.000 10.951 0.000 0.000 0.000 21.850" Properties=species:S:1:pos:R:3:forces:R:3 energy=-687.95751953 virial="-7.22446918 -0.64190096 -1.02194726 -0.64190096 -7.41717720 -4.18798590 -1.02194726 -4.18798590 -4.35386276"
Si     1.41401740     4.08000065     1.38080115    -0.53599894    -0.20768148    -0.42995986
Si     5.46534465     8.24805526    11.08641766     0.47297400    -0.47096246    -0.33835423
Si     5.59393500     2.68246726    16.41910121    -0.84881115     0.22695191    -0.28242761
Si     5.38999184     2.73113011    10.99343073     0.29881185     0.15645415    -0.33748364
Si     0.04771249     8.14539735    16.33329067    -0.20834957    -0.16922024    -0.01565019
Si     0.14088863     8.21262894    10.95492522    -0.51151371     0.30208582     0.12710750
Si     0.02253237     2.68273383    16.22798623    -0.12664354     0.05614062     0.42588374
Si    -0.03054431     2.67114890    10.88738690    -0.50224656     0.72910929    -0.21370681
Si     6.88165097     6.82620908    20.56360414    -0.20907626     0.10204758    -0.03313153
Si     6.89486732     6.80281754    15.09642162    -0.34204021    -0.13493103    -0.31730485
Si     6.76563883     1.40212295    20.48420839     0.19313559     0.22305313    -0.50845563
Si     6.90044569     1.35698298    15.03593551    -0.10900693    -0.28755558    -0.11523390
Si     1.28263775     6.86003613    20.56505425     0.17378198    -0.11074933    -0.19570874
Si     1.48510951     6.81687081    14.96296747    -0.33424851    -0.02146223     0.30553076
Si     1.32325144     3.98524819    17.69893392    -0.01238448     0.79357994    -0.24462591
Si     1.23480723     1.30800812    20.41062985     0.72124326     0.59998488    -0.42759049
Si     5.49578846     5.50765802    19.13449690     0.00144535    -0.05277721    -0.15673813
Si     5.46875575     5.40023437    13.66990321     0.07496222     0.55383265     0.48949319
Si     5.43104320    10.96343601    19.03785055     0.08409245    -0.31076401     0.58072346
Si     5.42323582    11.02044358    13.67386568     0.33112967     0.04656683    -0.05309700
Si     0.07010991     5.45321760    19.09416748    -0.21224919    -0.32125676     0.32046866
Si     0.09603738     5.50187737    13.54152459    -0.05139845    -0.45393309     0.43275344
Si    -0.08743592    11.04019105    18.94833078     0.23325303    -0.52647579     0.25571701
Si    -0.12089264    10.94969400    13.55184623     0.21984717     0.09565473     0.46842408
Si     6.85956071     9.51471429    17.79824617     0.05398159     0.10015305    -0.09974711
Si     6.86926216     9.59272241    12.46579174    -0.20177352    -0.30543792    -0.34311831
Si     6.85987755     4.07656699    17.73583899     0.18876806     0.47830433     0.27115741
Si     6.80060009     4.07527891    12.33533855     0.55565017    -0.22550571    -0.17346418
Si     1.27881284     9.56036774    17.66471856     0.28880847     0.22327456     0.48548841
Si     1.37336169     1.26063227    14.94006262    -0.36104262     0.46008408    -0.16303024
Si     1.43859453     9.70652058    12.38057626    -0.33762473    -1.11823761    -0.15944883
Si     5.48872110     8.15305182    16.45864445    -0.11873189     0.39332119    -0.30616030
Si     8.28313667     5.45669978    16.40643828    -0.00831443    -0.25371268    -0.03217518
Si     8.25945110     2.72934401    19.06250055    -0.63958848    -0.10714676     0.24039176
Si     8.28868510     2.68445765    13.69948898    -0.62208712     0.38506263    -0.46463841
Si     2.57572820     8.19644873    19.13515180     0.59304404     0.17249468    -0.00289688
Si     2.83344474     8.29351888    13.75016770    -0.20425791    -0.06726005    -0.34268534
Si     2.71407525     2.77516748    19.01036884     0.10845757    -0.76610851     0.77467120
Si     2.72190796     2.75244571    13.70515472     0.05705776    -0.19914094    -0.29684067
Si     9.66616217     6.78082434    17.78741635    -0.27910542     0.33626246    -0.33219948
Si     9.68532823     6.84198741    12.23162865    -0.53280973    -0.08041495     0.12304539
Si     9.52248946     1.42142716    17.62375177     0.10033404    -0.25896212    -0.16440505
Si     9.44384530     1.36127340    12.17407885     0.49219519    -0.21139720     0.27811956
Si     4.02784379     6.87681645    17.78721622     0.27715427    -0.29098773     0.18929307
Si     4.11615481     6.84457077    12.36958983    -0.03318721    -0.14302075     0.01720865
Si     4.06796197     1.37206696    17.68654294     0.20456520     0.06971921     0.18822132
Si     4.13980091     4.06979255    20.39641500    -0.17012176     0.15799943     0.48393208
Si     4.10004366     4.10653526    15.10119503     0.35921746    -0.40490961    -0.21126339
Si     8.23283585     5.40811884    10.92401344    -0.05022458     0.40557408     0.02100176
Si     8.22878508    10.83075476    16.34606847    -0.34167784     0.50150812     0.37157547
Si     8.09156535    10.84225094    10.91460421     0.14706194     0.59207809    -0.02211959
Si     2.74356087     5.43164569    16.44470394    -0.17428017     0.15785417    -0.16647989
Si     2.79083560     5.41587025    10.97692741    -0.18968286     0.38571975    -0.34091669
Si     2.65806500    10.98631195    16.39937826     0.35859472    -0.38321626    -0.09393638
Si     2.68305194    10.88879709    10.89626670     0.56410336     0.18116483    -0.18329267
Si     9.56634702     9.73912878    20.40097689    -0.15197906    -0.66497046     0.24678195
Si     9.60742574     9.54094301    15.04852090     0.20479125    -0.16675664    -0.41684806
Si     9.59175059     4.04673448    20.41914899    -0.13916369     0.66469288     0.21023948
Si     9.63643342     4.10192666    14.95463606     0.07831018     0.36908534    -0.02499609
Si     4.09731535     9.50555203    20.48820066    -0.15940158     0.35420161    -0.55128634
Si     4.15939306     9.70815743    15.09548863    -0.09726197    -0.71754014     0.22923763
Si     3.99734617     1.36862292    12.24087848     0.24766055    -0.15786365     0.53090566
Si     1.40756280     4.02285808    12.20455225    -0.29686853     0.09833017     0.43852937
Si     8.12794541     8.34616003     8.15264090     0.41242516    -0.19875732     0.49626446
Si     8.22943471     8.32497672     2.78786865     0.33344775    -0.35099679    -0.19709992
Si    -0.01787992     8.23418657     5.44224622     0.71307057    -0.06577353    -0.12119032
Si    -0.03299188     8.37523359     0.02176067     0.15933362    -0.38594201    -0.17087707
Si     0.01802360     2.72983901     5.49657753     0.07548729     0.15749219    -0.19706823
Si    -0.05768628     2.69901900    -0.10818360     0.53087628     0.24933733     0.81289458
Si     6.90735692     6.90941670     9.62987793    -0.52027845    -0.08598209    -0.04426150
Si     6.94123767     6.90550960     4.14636086    -0.83743644     0.42242587     0.15247920
Si     6.69343407     1.37786747     9.57236934     0.55695677    -0.32215330     0.31841278
Si     6.82314258     1.35591811     4.00904791    -0.27402627     0.76215613     0.38862374
Si     1.30604402     6.74105317     9.59580439     0.36928058     0.01801319    -0.05166520
Si     1.48690766     6.89194690     4.02937911    -0.97599399    -0.39174315     0.51718879
Si     1.30945006     1.33201312     9.61505163     0.44554913    -0.12093164    -0.42355263
Si     1.39694539     1.40921966     4.04833286     0.13530284    -0.15158191     0.11971033
Si     5.48563291     2.76914732     5.51931786     0.23307720    -0.37855983    -0.21208678
Si     5.43834800     5.53074656     8.28310430     0.26047882     0.20959209    -0.46629226
Si     5.47233825    10.85498121     8.25783083    -0.33039892    -0.06303958     0.04416833
Si     5.43844618    10.93659268     2.72283670    -0.09441593     0.26123166     0.10039521
Si    -0.07593977     5.52481183     8.11131954     0.35223022    -0.18509941     0.04305183
Si     0.02810921     5.47690975     2.72136337     0.31673384     0.29021108     0.06423168
Si     0.00340144    10.95292846     8.21324344    -0.29727691    -0.26959312    -0.04729061
Si     0.03953559    10.94890943     2.67102210     0.11001636     0.30543250     0.18344429
Si     6.79697489     9.68836850     6.74190282     0.26261094    -0.18134387     0.37918967
Si     6.85034259     9.66794845     1.45063192     0.01573168    -0.42792457    -0.84467268
Si     6.81380696     4.20020441     6.84902800    -0.13059729    -0.43486434     0.25813571
Si     6.88215831     4.22553974     1.57129552    -0.26129332    -0.38709563    -0.81690115
Si     1.34659580     9.54313026     6.84806675     0.20260540     0.35800931    -0.07366571
Si     1.47975392     9.62751091     1.34858958    -0.36321819    -0.01712167    -0.09163052
Si     1.43346473     4.00603298     6.92505297    -0.60601485     0.40302923    -0.29907846
Si     5.46427267     5.59233913     2.89008133     0.05473378    -0.32166302    -0.49475783
Si     5.41895297     8.21079032     0.08286748     0.67118311     0.04604295    -0.22887029
Si     5.51859364     2.79666419     0.06819500    -0.04023262     0.17105976    -0.21889991
Si     5.40019753     8.25356359     5.55666231     0.58817291    -0.57468021    -0.33301345
Si     8.09366856     2.67877103     8.20136600     0.28072536     0.23095800    -0.44296670
Si     8.16722841     5.48582625     5.46399434     0.64368737     0.44029135     0.40593767
Si     8.24911482     2.79365168     2.81367800     0.11289025    -0.10826755    -0.29795662
Si     2.63787243     8.12504679     8.24511351     0.18609247     0.05421348    -0.19687128
Si     2.82149614     8.20981704     2.70809351    -0.04731510     0.52028567     0.14994439
Si     2.78950228     2.63337672     8.28005005    -0.03531717     0.13345447    -0.27655035
Si     2.84659997     2.72029303     2.63575811    -0.29805091    -0.07628910     0.47912234
Si     9.53777387     7.03963824     6.82327952    -0.18485521    -1.04404163    -0.09069301
Si     9.65715303     6.93003926     1.40869872    -0.52349383    -0.14206761    -0.17416294
Si     9.57848373     1.35676108     6.81408295    -0.13636819     0.30580431     0.34235591
Si     9.57793977     1.41514710     1.35218514    -0.22280869    -0.14908889    -0.03128890
Si     3.99097989     6.81836344     6.82339735     0.38546169    -0.07574848     0.29747760
Si     4.07482450     6.81452832     1.36991172     0.18287703    -0.25185010    -0.03805685
Si     4.21307458     1.27891896     6.87077544    -0.56691658     0.49886018     0.04474155
Si     4.12625270     1.31322075     1.24029775    -0.08137567     0.20762740     0.28426555
Si     8.25336983     5.43805793     0.05666720     0.17548367     0.31670946     0.03582427
Si     4.14863506     4.06428388     4.12928306    -0.43426162     0.34530580    -0.01928703
Si     8.16985734    11.12014958     5.40824923     0.51458859    -1.13817167     0.09437617
Si     8.14837539    11.03989380    -0.08599051     0.27877277    -0.29023182     0.71710503
Si     2.63826930     5.41374727     5.47503351     0.65727133     0.01084155    -0.13050818
Si     2.70721402     5.39495982    -0.04129054     0.30135483     0.43608516     0.04901413
Si     2.77872080    10.99333825     5.49033094    -0.37450966    -0.28430888    -0.03068443
Si     2.70135622    10.97304984    -0.16991381     0.25755993    -0.19729909     0.59224141
Si     9.60704673     9.56526757     9.65380583    -0.13581532    -0.00829440    -0.57555652
Si     9.68447311     9.62325010     4.11898533    -0.76357770     0.53372610    -0.14975086
Si     9.49210127     4.14662288     9.36922221     0.31485164    -0.52370620     1.06615067
Si     9.61315803     4.20089717     4.14033096     0.06639290    -0.47698736     0.10528818
Si     4.08517114     9.36347940     9.60335383    -0.12274137     1.08422637    -0.05800384
Si     4.16209362     9.59283748     4.19088163    -0.56929815     0.10951655    -0.65552044
Si     4.12111080     4.10811218     9.55074071    -0.12350518    -0.19641736     0.33395851
Si     8.29692899     8.11695395    13.73354065    -0.25889835     0.22908127    -0.36929142
Si     8.26969588     8.13797049    19.14990525    -0.11830206     0.38460949     0.04954549
128
Lattice="10.901 0.000 0.000 0.000 10.788 0.000 0.000 0.000 22.507" Properties=species:S:1:pos:R:3:forces:R:3 energy=-679.76885986 virial="-2.23193765 6.90834904 -0.62657070 6.90834904 8.13848686 16.12174988 -0.62657070 16.12174988 -38.83856964"
Si     1.33921012     3.97374590     1.27351412     1.27437305     1.36254907     1.40841913
Si     5.56929074     7.92115768    11.43906147    -2.26326180     1.06278121     0.32821006
Si     5.37565604     2.58477410    16.84630597     1.46339774     0.52693403     0.38668197
Si     5.45945374     2.67336284    11.27794928    -0.04421119    -0.27448460     0.48417449
Si     0.06237897     7.88569336    16.73849824    -0.23909628     1.02931905     0.80359316
Si    -0.12656171     8.09716705    11.27317378     0.37766719    -0.76398194    -0.47838128
Si    -0.04983352     2.69409260    16.71036559     0.23212367     0.42053658     0.01326465
Si    -0.15336985     2.68554187    11.12132650     0.49830639    -0.66862738    -0.05700436
Si     6.81933510     6.78367046    21.13521097     1.35785127    -0.68992746     0.02112891
Si     6.80978789     6.63136197    15.56535072     1.50785446     1.04591310     1.10839617
Si     6.68607258     1.43808917    20.98779913     0.70908040    -0.48320168     1.06434631
Si     6.85757015     1.27097448    15.42655519     0.09143011     0.91817522     0.51502359
Si     1.27714666     6.66336145    21.12001341     0.43894804     0.74645567    -0.44797242
Si     1.44148652     6.62831608    15.44428130     0.45609313     0.16178341    -0.26426411
Si     1.29721903     4.15855032    18.09499100     0.24222246    -1.54947066     1.11656260
Si     1.28680813     1.31775007    20.90131129     0.20386584     0.12898476     0.44555336
Si     5.49076764     5.47684280    19.80585792    -0.36261678    -0.39849633    -0.58576095
Si     5.53804064     5.40071960    14.34987233    -0.96049911    -1.80233598    -2.23391628
Si     5.45179719    10.66024355    19.81503582     0.58646500     1.09259009    -1.70370936
Si     5.55647949    10.85168417    14.06239878    -0.77597362    -1.69727087     0.76591069
Si    -0.00266492     5.22725838    19.76833258    -0.14725496     1.10381722    -0.73824584
Si     0.19739468     5.29402233    14.00821610    -0.41885841     1.24975276    -0.57309502
Si    -0.17381212    10.71505036    19.49147298     0.25305465     0.58389676     0.49931830
Si    -0.07169605    10.69764378    13.99456114     0.48974222    -0.23991542    -0.61363339
Si     6.79982170     9.33079716    18.38193022     0.10137473     0.53749031    -0.26491740
Si     6.74515627     9.33393441    12.75826971     0.84753579     0.44828737    -0.05364563
Si     6.92385319     4.25759107    18.33443336    -0.90238994    -1.25737715    -0.59805143
Si     6.90399495     4.05546935    12.57524083    -1.26586866     0.24754411     0.70120662
Si     1.33407509     9.37006799    18.30392967    -0.12512751     0.09704638    -1.07882643
Si     1.19684816     1.37117275    15.25310022     0.92762440    -0.84229100     1.02306724
Si     1.33458856     9.16148757    12.69088096     0.61181235     1.68734884     0.12706941
Si     5.47633798     8.02030766    16.97923216     0.63303757    -0.96507204     0.65335047
Si     8.41532180     5.27427114    16.80885929    -0.95999312     0.88726562     0.26356816
Si     8.06116793     2.68689254    19.63756341     1.09867883     0.42053705    -0.08540852
Si     8.11730096     2.69661602    13.92780215     0.97365844    -0.38928682     0.73513019
Si     2.71134693     8.12976058    19.67384137    -1.01700926    -1.16901219    -0.15868299
Si     2.87716172     8.07735230    14.19771705    -0.73266494    -0.32208949    -0.17182000
Si     2.85078503     2.64052865    19.64607099    -1.03971004     0.45772713    -0.56002814
Si     2.75030363     2.52463719    13.99590116    -0.78122747     1.25714827     0.18389004
Si     9.56485225     6.73714716    18.26595628     0.33492014    -0.47322601     0.39291942
Si     9.56272673     6.56633156    12.62646298     0.46674329     0.91645145     0.68544865
Si     9.44883852     1.36546618    17.97708150    -0.12475272    -0.07191973     1.48104692
Si     9.50124215     1.23767234    12.57792879    -0.02315115     0.64112395     0.14259106
Si     4.04490439     6.72728339    18.37947144     0.33700639    -0.17774266    -0.35021043
Si     4.12531719     6.62956953    12.90389077     0.24824896    -0.01587653    -0.78903669
Si     4.16097417     1.20992078    18.22843285    -0.46556306    -0.02576961     0.44841540
Si     3.97806242     4.15604368    21.10239181     1.26984239    -0.91261315    -0.29044193
Si     4.11065296     3.84855419    15.42661387    -0.49331445     0.79872763     0.29046154
Si     8.15598048     5.46351478    11.28779362    -0.59004545    -0.29064173    -0.82571149
Si     8.07759640    10.67030211    16.85286795     0.68891943    -0.53786296    -0.65007037
Si     8.03860493    10.77709455    11.29439650     0.71235150    -1.15510273     0.32725084
Si     2.76556808     5.36868409    16.85988620     0.56232834    -0.19649231    -0.18939200
Si     2.73354274     5.37882070    11.33096449    -0.20426047    -0.23098110    -0.08320364
Si     2.72222451    10.71694714    16.78501940    -0.72468030     0.39296657     0.52231121
Si     2.79605277    10.77323420    11.31534931    -1.09251690    -0.44706139     0.38036895
Si     9.43714360     9.45411576    21.11940060     0.44497776     0.75351977    -0.12807308
Si     9.63841667     9.25580646    15.29852372    -0.97438896     0.30555585     1.17930937
Si     9.44489206     4.15944261    21.20262332     0.25144622    -1.19553900    -0.06233387
Si     9.68496620     4.15076417    15.22699148    -1.28271163    -1.68193388     0.86632168
Si     4.00235300     9.44460778    20.89060166     0.37502265    -0.47260499     2.37192178
Si     4.16861147     9.26060965    15.74200977    -0.29332989     1.58973837    -1.99037099
Si     4.13822705     1.27027023    12.79732434     0.14361748     0.06266956    -1.55531931
Si     1.23929556     3.92588825    12.58551476     1.31366801    -0.43913889    -0.50297093
Si     8.18364997     8.15331906     8.63070486    -0.58127952    -0.90743697    -1.40825725
Si     8.29261201     8.19137642     2.81895899    -1.12461424     0.61830568     0.36289012
Si     0.16558270     8.25855021     5.56601327    -1.33467770    -0.21531960     0.19325766
Si     0.01492159     8.20966703    -0.10574830    -0.17663716    -0.41163594     0.66851842
Si     0.11313644     2.63353635     5.62978140    -0.69539106     0.27679443     0.07466369
Si     0.07981385     2.70203916     0.03890464    -1.53189075    -0.77551383    -1.59090829
Si     6.73095745     6.86139743     9.94157813     1.36682248    -1.04474306    -0.70916837
Si     6.72065860     7.03479537     4.32207479     1.29575634    -1.52180886    -0.70639479
Si     6.75215755     1.21416322     9.96299500    -0.67977631     0.89050096    -1.28787446
Si     6.81298396     1.66398062     4.25624529     0.37138218    -1.66383600    -0.18896690
Si     1.28878745     6.69650453     9.83907710     0.06508036    -0.05359590     0.49667320
Si     1.31342043     6.64304589     4.33056851     1.12366676     0.93389273    -0.59170783
Si     1.42081519     1.18529518     9.72000789    -0.78736341     0.56150877     0.83930576
Si     1.55562748     1.37537581     4.25883290    -1.20891595     0.09965402    -0.00192837
Si     5.39650338     2.70265937     5.76663569    -0.28803709     0.54720032    -0.35159129
Si     5.49298510     5.54416989     8.51359638    -0.39753401    -1.28525496     0.62210101
Si     5.25756134    10.66427043     8.59117843     0.92686903     0.56364143    -0.66629744
Si     5.44977635    10.94157912     2.80043116     0.15434748    -0.25611931    -0.17894325
Si     0.01573157     5.36849467     8.35511654    -1.13285625     0.10821356     1.36715853
Si     0.11561853     5.50323793     2.71545427    -0.55996472    -0.77854967     0.41608828
Si    -0.16242364    10.68892150     8.38586590     0.95862627     0.78502977     0.09618831
Si     0.15971111    11.09755265     2.70839271    -0.55271262    -0.89620394     0.07155745
Si     6.89301034     9.44919530     7.12636047    -0.76826215     0.03303092    -0.06254727
Si     6.89958791     9.42534224     1.23522308    -0.65853369     0.31189805     1.71493983
Si     6.71768609     4.08400184     7.14638544     0.24038093     0.73259819    -0.83947122
Si     6.82598909     4.11409778     1.36449680     0.75844836     0.53305626     1.15193629
Si     1.43443576     9.53033810     7.09327930    -0.98549020    -1.15931511     0.55953944
Si     1.35735784     9.60262433     1.28655565     0.35395995    -0.41022786     0.33871412
Si     1.25724441     4.08050988     7.02691663     1.39746010    -0.75421584    -0.11033407
Si     5.54670700     5.40018949     2.91944203    -0.47703966     0.42868492    -0.15588708
Si     5.58453814     8.10503438    -0.11488492    -1.82523727     0.50339979     0.69117653
Si     5.57443063     2.81799690     0.02828047    -1.34013152    -0.24921297    -0.92926770
Si     5.40126025     8.09983247     5.77567404    -0.62573761     1.13110447     0.01916274
Si     7.99058724     2.68340602     8.37301977     0.17567715    -0.50312418     1.05288959
Si     8.18764221     5.57204311     5.76350716    -0.41433272    -0.72267115    -0.76275975
Si     8.30688975     2.84779844     2.77984233    -0.75479710     0.27264661     0.66134983
Si     2.65087138     7.98649238     8.44336969     0.23312917     0.67655474     0.45711169
Si     2.72858069     8.24852483     2.78235828    -0.41502389    -1.17797232    -0.32433808
Si     2.72616990     2.68522669     8.48845992    -0.45818454     0.49854022    -0.01354323
Si     2.69955620     2.67884303     2.83081673     0.57972932     0.78488648    -0.81361628
Si     9.58409854     6.80456228     7.12667926     0.12249102     0.87326896    -0.37087983
Si     9.55084208     6.88467694     1.48035574     1.74851179     0.60475576     0.25744456
Si     9.51986599     1.46882743     7.13429013    -0.00717556    -0.79484564    -0.97713113
Si     9.45819959     1.42432416     1.40981532     0.94632733     0.29967448    -0.13861495
Si     4.09713264     6.68535322     7.16911148    -0.45883721     0.37795120    -1.00161505
Si     4.17645613     6.70483124     1.39508283    -0.16360433     0.82532334     0.18213056
Si     3.98418341     1.36371961     7.11461999     0.49167499    -0.71082020    -0.19756112
Si     4.06714854     1.47003619     1.26877165     0.41107935    -0.34766817     0.57379591
Si     8.34088447     5.54992862     0.28178189    -1.69922352    -0.99522293    -2.12642765
Si     4.02099332     4.07794652     4.23927524     1.09438050    -0.69600260    -0.44869244
Si     8.20883732    10.75520669     5.63173616    -0.32509923     1.36168909     0.00343660
Si     8.15209268    10.87958926     0.08070524    -0.05236470     0.29807124    -1.52650249
Si     2.80063600     5.28955339     5.64598302    -0.92374414     1.05502498     0.74151534
Si     2.74341013     5.45996868    -0.05648998    -0.46456051    -0.09034622     0.88414180
Si     2.58930440    10.75463810     5.68824230     1.62922978     0.72652996    -0.37022120
Si     2.78572643    10.82507903    -0.12700372    -0.49707520     0.27945486    -0.21959440
Si     9.47955199     9.45374474     9.82153128     0.33184347     0.52362770     1.45818973
Si     9.58816459     9.74042325     4.02819385     0.64228034    -0.95305586     0.83228844
Si     9.22461503     4.01016624     9.84695938     1.54697657     0.24365185    -0.55311763
Si     9.68255400     4.09561143     4.32013641    -0.41785508     0.61993784    -0.39363900
Si     3.99035840     9.35444101     9.99398723     0.55768692    -1.00910091    -0.07939725
Si     3.97272580     9.56148465     4.19236044     1.14149070    -0.15900315     0.52773583
Si     4.11387442     3.98997701     9.93616838    -0.16962533     0.69025040    -0.48567981
Si     8.15489089     7.92808821    14.04455597     0.10426592     0.01240025     0.06244648
Si     8.20425646     8.09919242    19.75822462    -0.03680189    -0.63722003    -0.44720355
128
Lattice="10.903 0.000 0.000 0.000 10.865 0.000 0.000 0.000 21.983" Properties=species:S:1:pos:R:3:forces:R:3 energy=-687.32043457 virial="9.15597534 -3.02133465 -0.15195584 -3.02133465 12.67454338 -5.92722225 -0.15195584 -5.92722225 -0.24823433"
Si     1.42213293     4.20572610     1.39747722    -0.63969433    -0.62072784    -0.50608629
Si     5.27582896     8.08602097    11.08784428     1.35677934    -0.50272614    -0.04663374
Si     5.54475233     2.68120437    16.52905613    -0.97105110    -0.40189445    -0.46576959
Si     5.47048137     2.66305227    11.01477114    -0.37333381     0.05141787    -0.25561604
Si     0.00182293     8.11231986    16.48913539    -0.09947313    -0.60612613    -0.52312315
Si    -0.09291624     8.02338838    10.96476735     0.27110034     0.70015037     0.40846083
Si    -0.01838851     2.72261037    16.43755489     0.04550491    -0.63321429     0.16847664
Si    -0.01231486     2.56035991    10.89443359    -0.73125839     1.11596751     0.55317509
Si     6.90708031     6.80251704    20.60117337    -0.85727811     0.41847485    -0.02014884
Si     6.92764756     6.74183313    15.22121745    -1.01344299    -0.41728455    -0.68988359
Si     6.86366715     1.38314546    20.62728887    -0.51870829     0.49333569    -0.71829700
Si     6.85290234     1.36685119    15.10415769    -0.15432470    -0.71695089    -0.14533927
Si     1.36478428     6.80180267    20.52799573    -0.19084738    -0.28752992     0.56569743
Si     1.42399064     6.69295184    15.11336659    -0.50814164    -0.19156027     0.17626694
Si     1.39268096     3.98894579    17.87815901    -0.77658278     0.96825415    -0.89879775
Si     1.33320539     1.36014025    20.51439008     0.15832677     0.22074029    -0.11470305
Si     5.50077386     5.41980317    19.26546533     0.02834842     0.09551656    -0.17263900
Si     5.48938311     5.24061573    13.76456303    -0.40990767     1.18656862     0.93149066
Si     5.52504528    10.87135288    19.18819884    -0.39575770    -0.26050985     0.63697886
Si     5.48568081    10.62942453    13.85071697     0.38103700     1.38404071    -0.85052806
Si    -0.05498925     5.42113156    19.21372451     0.65644538    -0.57062292     0.38031226
Si     0.04380308     5.38241866    13.63771874     0.01383425    -0.60945809     0.51119435
Si    -0.03619146    10.84602627    19.19442913     0.13975863    -0.05004296    -0.18645409
Si     0.04687838    10.67341090    13.66391427    -0.49818122     0.65574992     0.65892118
Si     6.86073116     9.49789592    17.84511158     0.03525230    -0.23925686     0.08544543
Si     6.83508489     9.39610965    12.35786895    -0.45965976    -0.20663442     0.28772825
Si     6.79935309     4.07765261    17.80645051     0.42372242     0.17368713     0.54702723
Si     6.73887758     4.06218623    12.37776479     1.11632347    -0.78527224    -0.57550651
Si     1.31458777     9.46203998    17.75047135     0.26912567     0.15991488     0.91382372
Si     1.37036518     1.23454376    15.12543747    -0.52555192     0.52613413    -0.65195954
Si     1.38846069     9.35791713    12.34922752    -0.45727044    -0.54264325     0.13394934
Si     5.53343579     8.01828223    16.60967078    -0.38879985     0.60448360    -0.76883340
Si     8.24124838     5.40216212    16.50246969     0.16269346    -0.51896483    -0.05325901
Si     8.22452537     2.79345185    19.20922706    -0.65183973    -0.62787020    -0.10133849
Si     8.20811265     2.63460898    13.67218620    -0.56485152     0.11427516    -0.10901992
Si     2.68897360     8.06652428    19.16635822     0.51280928     0.78057450     0.05837902
Si     2.72259770     8.01065155    13.75053318     0.30782944     0.27368081    -0.04894233
Si     2.72190949     2.73191907    19.11082430     0.58338988    -0.69378781     1.12028623
Si     2.69036093     2.63055995    13.66244469     0.30283350    -0.50298303     0.16429698
Si     9.57714691     6.74148401    17.87288581    -0.14986672     0.26255757    -0.38991779
Si     9.53182456     6.72916697    12.40915966    -0.21664584    -0.24172886    -0.46863535
Si     9.46239796     1.32268049    17.85787398     0.42768362     0.04975805    -0.51467502
Si     9.58244777     1.31191837    12.35819888    -0.05664786    -0.60222101     0.00050157
Si     4.10628127     6.68596123    17.84429544     0.00949021     0.16609827     0.36261249
Si     4.08530293     6.59598494    12.43905033    -0.04196566     0.40641317     0.04693395
Si     4.06737029     1.26146749    17.85098234     0.26575714     0.43331337    -0.29783428
Si     4.07454963     4.10351266    20.55401897    -0.37601781     0.18623471     0.25055653
Si     4.03596024     3.94432828    15.07933800     0.69053912    -0.28789806     0.03128918
Si     8.10669647     5.43505712    10.96739443     0.31121695    -0.35598820     0.49331158
Si     8.20136203    10.73936272    16.36545897    -0.28365403     0.82709169     0.78792262
Si     8.15558567    10.79207106    11.07040222    -0.33256552     0.63275641    -0.33354837
Si     2.84186943     5.31850132    16.45723209    -0.90102196     0.14332113     0.24935335
Si     2.68284522     5.40241096    11.02253789     0.14386758    -0.01573086    -0.17410418
Si     2.67608153    10.81342507    16.45522572     0.74786472    -0.32436538     0.07115746
Si     2.62439708    10.76895939    11.10187018     0.79461575     0.47841978    -0.82504535
Si     9.52305394     9.54775508    20.61090582     0.13426697    -0.27793571    -0.10945477
Si     9.47446943     9.36478223    15.09922854     0.82029563     0.08725591    -0.45530015
Si     9.49013961     4.03173035    20.64212241     0.17801045     1.00256407    -0.30039775