128
Lattice="11.640 0.000 0.000 0.000 11.653 0.000 0.000 0.000 23.163" Properties=species:S:1:pos:R:3:forces:R:3 energy=-666.39215088 virial="-212.92858887 0.81839162 -0.35668254 0.81839162 -214.48800659 0.90894580 -0.35668254 0.90894580 -207.07841492"
Si     1.46371992     4.38304817     1.55767345     0.07675440    -0.04585922    -0.32266057
Si     1.37796039     4.35847478     7.39634374     0.05900253     0.21060370    -0.45657963
Si     1.41657304    10.15920172     1.43811215     0.33216763    -0.35120988     0.37556130
Si     1.44919184    10.20510337     7.25820020     0.20434672    -0.15525404     0.00554100
Si     7.20335440     4.23293318     1.40464029     0.26783770     0.20372827     0.13227315
Si     7.16413150     4.44666107     7.23508630     0.22290215    -0.17815393     0.10048914
Si     7.27899500    10.26693612     1.47715249     0.26734143    -0.03799502    -0.17461741
Si     7.17763107    10.16347558     7.35109124     0.09708990    -0.39020377    -0.10448626
Si    11.67313571    11.61906549     2.96426176    -0.18690756     0.13498516    -0.08874652
Si    11.60746512    11.69653296     8.62904747    -0.00896531     0.04460746     0.20222130
Si    -0.12522570     5.86026133     2.92368735     0.36182201    -0.39341888     0.01956348
Si    -0.12452927     5.80036673     8.76502796     0.24289876     0.19803751    -0.24144053
Si     5.72163894    -0.06243230     2.86480338     0.38198945     0.22052777     0.25154358
Si     5.62566466    11.66452194     8.57552575     0.59410763    -0.16115609     0.51422846
Si     5.88736036     5.78050911     2.85046325    -0.04298442     0.15442365     0.31839368
Si     5.73957076     5.80914881     8.77951832    -0.06791010    -0.15715815    -0.56167412
Si     1.49825095     1.43639917     4.44180182    -0.18699178     0.04840564    -0.37593362
Si     1.46757631     1.45851080    10.06764045    -0.10912926     0.13586363     0.18550971
Si     1.42475262     7.27145553     4.35515035     0.04809634    -0.06081245    -0.03951722
Si     1.51776044     7.22152364    10.06004250    -0.16000149     0.05451099     0.39249623
Si     7.18524299     1.42105764     4.42692694    -0.11650532    -0.20640913    -0.34279191
Si     7.16968726     1.40427775    10.06494480     0.29198691     0.17377874     0.16730377
Si     7.37076279     7.34877449     4.27124928    -0.29750884    -0.54289341     0.37035912
Si     7.24326927     7.23321733    10.01476277     0.06746399     0.59693074     0.88012981
Si    -0.00306937     2.95829756     0.08618871    -0.18722123    -0.19407773    -0.03958914
Si    -0.05868841     2.99163909     5.87457879    -0.04148879    -0.35969102    -0.28648597
Si     0.22428049     8.81237094    11.50565822    -0.60493803     0.07749675     0.30251455
Si    11.73688552     8.68254970     5.85490267    -0.70295966     0.19380644     0.08815189
Si     5.81597272     2.85897613    23.06825262    -0.09437476    -0.17704305     0.05512002
Si     5.76969162     2.98319616     5.79193816    -0.05585691    -0.17552476    -0.14531416
Si     5.90391166     8.85140102    11.54971842    -0.10858579    -0.57121766    -0.10205703
Si     5.87511479     8.51516487     5.87407180    -0.22176401     0.79014432    -0.30007955
Si     4.34106735     4.38779797     4.28652045     0.01749861    -0.16047366     0.12350839
Si     4.43944750     4.30994734    10.30826722    -0.18719529     0.14779350    -0.47072607
Si     4.44956159    10.04586268     4.39050122    -0.25304174     0.29026866     0.05589742
Si     4.37398979    10.11939845    10.12784009    -0.16920805     0.65185368    -0.14373174
Si    10.05428789     4.40581542     4.35275375     0.38748327    -0.18875659     0.15645534
Si    10.02719273     4.36086215    10.11512248     0.16483197    -0.10388735    -0.04425664
Si    10.23702797    10.13613581     4.43329165    -0.11501344     0.23020300    -0.02103275
Si    10.26436388    10.32917953    10.28257873    -0.00806691    -0.30520862    -0.55010462
Si     2.92704009    -0.19112964    -0.09760361    -0.20238081     0.69173849     0.06645196
Si     2.94761377    11.56470631     5.78230506    -0.10272722     0.18299872     0.05350014
Si     3.14548554     5.76437425     0.10867720    -0.64544857     0.19742668    -0.29199809
Si     2.79752769     5.77844831     5.78225331     0.09745985    -0.18401128     0.00286650
Si     8.76293030    11.63520181    -0.08182888    -0.13906509     0.10612094     0.62674636
Si     8.54682878    -0.15881359     5.85819839     0.70868278     0.68466550    -0.20708875
Si     8.64683551     5.75514358     0.00098174     0.04930462    -0.03628059    -0.12857333
Si     8.72126458     5.89918984     5.82492843    -0.30898356    -0.04614174    -0.02959398
Si     4.32763265     1.34670863     1.31501168    -0.02300141     0.12827741     0.30525118
Si     4.29768895     1.50729795     7.14407572    -0.03016025    -0.00530425     0.40200722
Si     4.47275476     7.29187122     1.54998862     0.04911759     0.13549680    -0.51155829
Si     4.24962654     7.15648239     7.17634880     0.40855992     0.21881174     0.52081800
Si    10.13061311     1.42720171     1.48002297     0.31975925    -0.04034579     0.00105972
Si    10.04736110     1.49961175     7.20441084     0.13082731    -0.31165892     0.16516869
Si    10.08226950     7.13598074     1.39680721     0.15232772     0.67886376     0.57455307
Si    10.07288829     7.34689559     7.35941444     0.74750686    -0.21698928    -0.31509408
Si     2.93305781     2.83972825     2.86356826    -0.12892967     0.04996731     0.18802337
Si     2.96194551     2.98117095     8.78333810    -0.24838501    -0.35588521    -0.35570699
Si     2.97790988     8.70886603     2.95668351    -0.37159246    -0.09944202    -0.19569942
Si     2.93149779     8.69402542     8.67863298    -0.11606093    -0.02653252    -0.20732266
Si     8.63942317     2.79659511     2.92112430     0.04781888     0.35461178     0.04360893
Si     8.58842399     2.91328660     8.65777016     0.03982239     0.04367347    -0.07545637
Si     8.77940333     8.84679469     2.92839677    -0.09537701    -0.52985346    -0.36897179
Si     8.78986582     8.79054575     8.87055010    -0.44906443     0.18936354    -0.54921573
Si     1.34141806     4.22152021    12.90936658     0.39731959     0.74926484     0.36979848
Si     1.31111853     4.47592633    18.98136973     0.37483761    -0.31882152    -0.41986442
Si     1.58306303    10.38479210    13.02328518    -0.32040122    -0.56162202    -0.06111755
Si     1.39504510    10.18273109    18.83405289     0.30603486    -0.29030901    -0.10937440
Si     7.33529276     4.43301901    13.05189077    -0.15813303    -0.06708413    -0.23690048
Si     7.29732738     4.25637624    18.77203785     0.25296897     0.56194156     0.22739188
Si     7.39077487    10.23107498    13.03923931    -0.13094282     0.03528942    -0.06031964
Si     7.39545854    10.16240262    18.75463203    -0.64172029     0.25576425     0.01004809
Si    11.73293818    11.79702109    14.51789679    -0.15772754    -0.14202356    -0.22817972
Si    11.65258199    11.62345345    20.33850749    -0.01467882     0.14555924    -0.06552216
Si    -0.05685401     5.80436912    14.32718870     0.22709879    -0.09177308     0.23869556
Si    -0.01773717     5.98744921    20.42846097    -0.09204270    -0.52489382    -0.31041554
Si     5.93939488     0.03966688    14.44604945    -0.22069567    -0.24265857     0.36531287
Si     5.84914331    11.63802908    20.17559720     0.04884687    -0.03049787    -0.03606895
Si     5.86742582     5.94729339    14.35737896    -0.21577120    -0.32615626     0.46850225
Si     5.98253193     5.84954118    20.20913958    -0.59025180    -0.01721714    -0.22527586
Si     1.51327405     1.58843257    15.95483290    -0.19525775    -0.05621503     0.14362203
Si     1.38249893     1.46543436    21.78656953     0.35115606    -0.22452497    -0.04874794
Si     1.40701985     7.21545470    15.87189708     0.21239871     0.00608733    -0.11524667
Si     1.63720353     7.24929269    21.85393313    -0.46780205    -0.14221239    -0.09551866
Si     7.35161357     1.49562406    15.95952063    -0.14929448    -0.18177587     0.00043399
Si     7.26591440     1.38951897    21.68185017     0.15428893     0.17918959    -0.11106193
Si     7.27573489     7.30285391    15.88999607     0.06384917     0.23101889    -0.24711117
Si     7.32886069     7.33985310    21.71014654     0.01091276    -0.04713688     0.01879806
Si    -0.14251466     2.86731741    11.46593658     0.41257399     0.07124615     0.21610330
Si    -0.05505713     3.01493590    17.44015144     0.36710095    -0.29762346     0.12871352
Si    -0.00901448     8.55942300    23.28142652     0.27998453     0.57548153    -0.43473452
Si    11.66068616     8.67560731    17.34522299    -0.32875311     0.47096199    -0.09059672
Si     5.93685759     2.85821142    11.63728498    -0.33129349     0.21843493     0.10898007
Si     5.83019766     2.88235827    17.35827518    -0.20529959    -0.00848581     0.08221012
Si     5.90940687     8.87187514    23.16084715    -0.26493376    -0.69401717    -0.05792368
Si     5.68600474     8.79342123    17.21435580     0.73929024    -0.22889809     0.37004691
Si     4.41975919     4.40313428    15.93617417    -0.08399293     0.13497117    -0.20142496
Si     4.49522952     4.39758631    21.60153101    -0.40941203    -0.22791010     0.42873269
Si     4.29234109    10.22119898    15.78401019     0.16364536     0.12895326     0.30936790
Si     4.45544950    10.15907981    21.54985030    -0.36113411    -0.26291806     0.37748709
Si    10.23999698     4.39512475    15.95158182    -0.50451601     0.26702300    -0.27373290
Si    10.15918129     4.36978800    21.74684936     0.15461808     0.16747448     0.21225508
Si    10.21857740    10.29928649    15.85380034     0.38959891    -0.39519915     0.39422220
Si    10.29202959    10.18972608    21.80920698    -0.30633354    -0.36818600    -0.30300373
Si     2.99275285     0.10045395    11.54945205     0.04194335    -0.24057652     0.10218933
Si     2.84304427    11.64522397    17.36655113     0.16682363     0.08838205    -0.07986208
Si     2.91375023     5.74929233    11.61083891    -0.09895580     0.19757146    -0.23347978
Si     2.84776038     5.72865596    17.40323323     0.09096964     0.42925876    -0.17946254
Si     8.74260899    11.78358481    11.64221813     0.06589307    -0.33274031    -0.10750290
Si     8.82887562     0.03445586    17.43189157    -0.16303009    -0.01155177    -0.34860486
Si     8.66348654     5.87737591    11.49880556     0.18408383    -0.16726112     0.16091737
Si     8.71261313     5.84731642    17.34655720     0.04349558    -0.17492750     0.10805774
Si     4.47730989     1.47134028    13.12683641    -0.24137491     0.24090564    -0.50846118
Si     4.27429195     1.44575850    18.84022579     0.20276219     0.03653239    -0.21358402
Si     4.37258429     7.36583008    12.90112183     0.07088783    -0.20831807     0.38645539
Si     4.36120098     7.25680830    18.67831594     0.05978906    -0.17097887     0.32486248
Si    10.20563996     1.56030409    13.10546026    -0.19526488    -0.17295672    -0.20555802
Si    10.20920568     1.45951391    18.92139865     0.06914557     0.05706345    -0.21608698
Si    10.23945784     7.32072775    12.82034770     0.07327418     0.04055851     0.55022109
Si    10.13245575     7.33003531    18.80838601     0.38004237    -0.08404653     0.16107869
Si     2.96915895     3.02138942    14.47324549    -0.13764411    -0.54930824    -0.01494101
Si     2.76677307     2.90930365    20.30663635     0.50591832     0.20554942    -0.02106479
Si     2.88459924     8.71474638    14.39019713     0.06893882     0.26148856     0.07155633
Si     2.90002654     8.58003249    20.18755072     0.27577779     0.74599957     0.18425867
Si     8.71888547     2.99033034    14.52488689     0.34991819    -0.02114441     0.03950369
Si     8.75786768     2.90414479    20.33137436    -0.17631620    -0.15236349    -0.28346282
Si     8.86928365     8.72140725    14.43522208    -0.38771212     0.22598076    -0.09708460
Si     8.79868477     8.80099219    20.27674095    -0.05451583    -0.14475468     0.08226097
128
Lattice="10.358 0.000 0.000 0.000 10.250 0.000 0.000 0.000 21.379" Properties=species:S:1:pos:R:3:forces:R:3 energy=-662.88769531 virial="251.75144958 -9.15849972 5.79757786 -9.15849972 255.09974670 -16.80208206 5.79757786 -16.80208206 233.95385742"
Si     1.43487834     3.82077985     1.20684191    -1.21009469    -1.56090283     2.27110791
Si     1.05162919     3.89074733     6.65688753    -0.35672528    -1.09448612    -0.11610537
Si     1.46205887     8.80175839     1.53745767    -0.33448702     0.80161256    -0.66210032
Si     1.31777611     8.89641581     6.77304967    -0.83691788     0.31225187    -0.23829962
Si     6.37134348     3.56244732     1.39922595    -0.19450857     0.78801560    -1.13153446
Si     6.31540380     3.86032751     6.59239577    -1.26982284    -0.11828222    -0.85494161
Si     6.60088427     9.01997770     1.32752139    -2.19315100    -1.09383798     0.19645143
Si     6.27895113     8.73312309     6.77899251     0.63743591     2.41981173    -0.45148620
Si    10.36480666    10.08427875     2.74293782     0.59326261    -2.36219931     0.40431780
Si    10.36412500    10.42263587     7.94611660     1.05989015    -0.77868450    -0.89456511
Si    -0.03975274     4.75074334     2.70048516    -0.50928950     1.29645610     0.19096747
Si    -0.04441964     5.17659631     8.11311977    -0.03910142    -1.27120113     0.77542078
Si     5.06585564    -0.16053672     2.70085476     0.51698476    -0.06459653    -0.41782492
Si     5.24337240    10.31906214     8.09904320    -0.79930758    -0.10146499    -1.49901509
Si     5.25153261     4.99376032     2.85665296    -0.94073009    -0.80183649    -1.94312274
Si     5.10212875     5.01857239     8.01180197     0.95886469     1.52590954     1.42657518
Si     1.11897732     1.22082010     3.94891650     0.64991486     0.05790862     1.85122371
Si     1.22663235     1.30876941     9.34962673     1.13011336    -0.71416819     0.90905529
Si     1.15607808     6.27918531     4.06067089    -0.69714653    -0.00818564     0.14628065
Si     1.19948919     6.39797081     9.48019358     0.18817495     1.01889539    -0.57265413
Si     6.27891704     1.15127246     4.08458854     0.01196736    -0.04644934     0.11638883
Si     6.43025555     1.30611313     9.46569756    -0.75504696     0.81454575     0.18452074
Si     6.44059833     6.26949312     4.10918953     0.10265717     2.04562974     0.11080165
Si     6.41649038     6.63874813     9.55221429     0.50179946    -1.62892890    -1.48804724
Si    -0.08843231     2.53239381     0.21373404     0.97902703    -0.74858469    -0.73977518
Si    -0.23635298     2.35318314     5.37399159     1.60516226    -0.15747879     1.22459960
Si     0.03075269     7.95254267    10.67428517     0.79178655    -0.20747779    -1.28561282
Si    10.16437042     7.70485090     5.49684472     2.08092523    -0.46189016    -0.66159374
Si     5.05157254     2.20798376    21.22572642     0.49300215     0.80235898     0.73240042
Si     4.97089864     2.55245993     5.29660713     0.61675584    -0.50305808     0.74803954
Si     5.06004415     7.84102132    10.78859368    -0.19624239     1.12004435    -0.47014931
Si     5.04456827     7.66406544     5.35788738     0.70164716    -2.12557125     0.16729417
Si     3.74016195     3.67652620     3.88132305     0.22712126     1.04025936     0.20960638
Si     3.82960145     3.72428670     9.28142948     0.11538322     0.04594925     0.88486528
Si     3.82449421     8.90643516     4.13517001    -1.07330549     0.03608676    -1.59327602
Si     3.77639946     9.10317596     9.25019352     0.86017191    -1.83180380    -0.29856646
Si     8.86891836     3.65172748     4.23542410    -0.29838043     2.27216768    -0.91416895
Si     8.80830588     3.74841782     9.15361072     0.67856038     0.37621802     1.02367473
Si     8.99934508     8.95546955     4.14764388    -0.19010711    -0.37665775    -1.44568837
Si     9.19877604     9.16274658     9.26339259    -0.70842314    -0.67389566     0.35195822
Si     2.55439193    -0.18302720    -0.09910740     0.01005686    -0.88882136     0.52249318
Si     2.49961284    10.18962067     5.35064117    -0.43662035     0.73985100     0.04434439
Si     2.66484824     5.07549567     0.05004842     1.92534208     1.31770122     0.14733943
Si     2.47415780     4.87726401     5.28870150     0.59088665     1.20608020     0.23470388
Si     7.85913145    10.29858737     0.16407849     0.79971570     0.23757952    -2.29238510
Si     7.75230417     0.00656049     5.37878851    -2.31911278    -1.30271077     0.11251110
Si     7.67154252     5.10969153     0.01803194     0.00293890    -0.01522591     1.41085529
Si     7.66092468     5.17502288     5.53121008     1.59437287    -0.34126845    -0.53801942
Si     3.69015965     1.04097142     1.37829276     1.11551857     0.25488162    -0.70392513
Si     3.70832767     1.30627721     6.73433427     0.50823283    -0.43966317     0.24444215
Si     4.13104458     6.39605104     1.31943874    -0.76690996    -1.05590975     0.67686570
Si     3.83492933     6.26375324     6.68728415    -0.54946101    -0.23556526    -1.06960344
Si     9.20194239     1.14281006     1.58379025    -2.13384414     1.86453247    -0.77460879
Si     8.82242853     1.18942115     6.79192522     0.41697991     1.28670406     0.43742782
Si     9.09575059     6.46030700     1.46837538     0.16271606    -0.99688613    -0.54973125
Si     9.08456237     6.35595386     6.81349774    -2.00069523     0.85053998     0.28352106
Si     2.50379299     2.34900061     2.68963003    -0.53383636     0.80530071    -1.16163445
Si     2.35537740     2.62542757     8.00810714     0.57426953     0.19558153    -0.68908292
Si     2.64901038     7.39300855     2.77086933     0.63619173     0.34171629     0.38544309
Si     2.60902693     7.55653754     8.01310290    -0.37631640     0.23224114     0.95252866
Si     7.64802431     2.44858603     2.86902940     0.38819540    -0.87624091    -1.15535629
Si     7.34383455     2.49998198     7.85833927     1.82340264    -0.35944343     1.08707845
Si     7.65136373     7.69698160     2.74681886     0.74473250    -0.61476755     0.67294723
Si     7.76199108     7.89083587     8.11570588     0.69738531    -1.81378317     0.33428204
Si     1.41536477     3.94101985    12.00602810    -0.07741862    -1.05334854    -1.35709429
Si     1.43753041     3.99658088    17.50190665    -0.59103632     0.38121805    -0.13323617
Si     1.32476048     9.17148990    11.93330616     1.04545975     0.62847602     0.92248940
Si     1.39055801     8.80966568    17.25912987    -0.36683416     0.51733005     0.59962392
Si     6.53925366     4.00723536    12.06448156     0.47800860     0.00536579     0.19433568
Si     6.67498303     3.98289290    17.36513549    -1.01681221    -0.98143005    -0.55977833
Si     6.57856979     9.08790209    11.94123749    -0.78772753     0.30065593     0.02382340
Si     6.59584760     9.08630101    17.25212844    -0.47097749    -0.71974325    -0.41101673
Si    10.49499717    10.54076459    13.37215425     0.11705872    -0.17171443    -0.25209004
Si    10.49351111    10.16118303    18.76880622     0.00400491    -0.40507001     0.05763760
Si    -0.02865172     5.03670695    13.16948734    -0.38117623     0.55703163     0.16433923
Si    -0.04735394     5.04993730    18.91720090     0.55369085     0.78118956    -1.19548202
Si     5.34207028     0.02740021    13.48243355    -0.64066637     0.47027162    -1.06361580
Si     5.07548916    10.34221051    18.49339136     0.63403296    -1.48392177     1.12874436
Si     5.16989692     5.23042728    13.37731670     1.26105332     0.71048355    -0.12614332
Si     5.14841779     5.15302919    18.53566737     0.83212709    -1.00934219     1.67857575
Si     1.33676502     1.56727582    14.84513277    -0.75140190    -0.00660595    -0.40663305
Si     1.37335881     1.30417442    20.16221119    -1.07566893     0.45699361    -0.48770076
Si     1.30270460     6.33140279    14.35447582    -0.12555373     1.56724632     0.35553342
Si     1.39230015     6.27428589    20.15087074     0.04796071     1.07998812    -1.55143452
Si     6.62199702     1.30724972    14.79208412    -0.69492501     1.37342954    -0.44551304
Si     6.60119686     1.14435972    19.86002368    -0.52918077    -0.26466048     0.92243218
Si     6.71057592     6.67291488    14.42283438    -0.06210110    -1.73126340    -0.37082702
Si     6.53529900     6.37348573    19.89817795    -0.11943955    -0.67293143    -0.07276144
Si     0.03003856     2.61685829    10.62719746    -1.19807935     1.04668975     0.60296732
Si     0.01156559     2.78818890    16.23902179    -0.98025191    -0.14740175    -0.70578349
Si     0.21852516     7.67766110    21.41555537    -1.17429101    -0.42471564     0.63397491
Si    10.38391479     7.61091766    15.86881190     1.71843123    -1.64421070     1.31279016
Si     5.24492183     2.69382311    10.80028549     0.11181982     0.46695405    -1.09939551
Si     5.14478738     2.61679981    16.04047795     0.64665937     0.75028217    -0.26394665
Si     5.29633879     7.60500943    21.25177358     0.90843016     0.84030002     1.14877868
Si     5.28748856     7.53253092    15.78361824    -1.05508566     2.31574941     1.54801106
Si     3.82929976     3.99645331    14.57780241    -0.19393578    -1.43647361     0.89189649
Si     3.91754900     3.89312593    20.06696828     0.94794047    -0.66524661    -0.59056371
Si     3.83742210     9.14912618    14.73891698     1.40591836    -1.80387855    -0.81891549
Si     3.91391378     8.76571411    20.02070988     0.88472950     2.29095268    -0.27048761
Si     9.02250302     4.14109986    14.66800411     1.05313015    -1.28058004     1.33670068
Si     9.10070755     3.82601062    20.26073577    -1.16251349    -0.65821296    -0.79402792
Si     9.41647035     8.99010199    14.62208660    -1.58227384     1.49388373    -1.48311424
Si     9.10026555     8.78788919    20.09895268     0.69802010     1.82410717     0.93521243
Si     2.81438708     0.14551479    10.65943558    -2.05751991     0.57329667     0.32116920
Si     2.48315779    10.30087418    15.92994781    -0.43676913     0.02884163     1.31761670
Si     2.64323182     5.17145416    10.58568459     0.41831991    -0.54179990     0.23603809
Si     2.43796304     5.24501244    15.86767428     0.82174468    -0.72443771     0.97694373
Si     7.83635545    10.33099085    10.54695479     0.46410653    -0.18889378     1.14845014
Si     8.01440761     0.00714715    15.82531361     0.23292792    -0.43825343     1.57537436
Si     7.92171850     5.29103228    10.75360414    -0.40095598    -0.18340090    -0.66157365
Si     7.75051918     5.36030210    15.97155955    -0.18158038     0.39680153     0.19992523
Si     3.97921826     1.41625508    12.01950927     0.94946939    -1.34017777     1.11591315
Si     3.73597444     1.33343506    17.26350011     0.19447109     0.37366974    -0.17966068
Si     3.90720245     6.38387016    11.96861920    -0.38119915     0.20468810     0.30200464
Si     3.96894418     6.30053984    17.17295885    -0.97386384     1.25353932    -0.80243790
Si     8.99944234     1.35789222    12.00983730     0.46671498     0.45305747     0.00025673
Si     9.12065102     1.18919742    17.47594590     0.43019161     0.32020199    -0.75800681
Si     9.35271255     6.61792180    11.98252301    -1.40426993    -1.16812778     0.13800348
Si     9.19552306     6.39723077    17.36708952    -0.30787432     0.26541826     0.72443938
Si     2.57146906     2.51699376    13.25662841     0.21351913     1.00762224     1.00677705
Si     2.62386037     2.58929130    18.74217681    -0.06257954    -0.24352342     0.49729043
Si     2.69669675     7.81526497    13.25045863    -0.43464687     0.14583994     0.08910791
Si     2.76139082     7.60403491    18.64378388    -1.44584405    -1.41905355    -0.79963505
Si     7.86393012     2.72278949    13.45835045    -0.90906537    -0.75650203    -0.64257151
Si     7.83877701     2.57476565    18.69367035     0.46355489     0.60578382     0.45951489
Si     8.00699664     7.93577990    13.17085708     0.42444763     0.10402161     0.45409301
Si     7.80613032     7.74634693    18.70957861    -0.16638637    -0.46136063    -1.57679605
128
Lattice="11.460 0.000 0.000 0.000 11.379 0.000 0.000 0.000 23.333" Properties=species:S:1:pos:R:3:forces:R:3 energy=-670.79876709 virial="-176.92254639 1.38779604 0.06218648 1.38779604 -168.69253540 0.35495538 0.06218648 0.35495538 -196.96322632"
Si     1.42364066     4.11610204     1.49814228    -0.07356261     0.39226773    -0.33268946
Si     1.13597996     4.19594063     7.20187491     0.59755003     0.11693938     0.54499471
Si     1.60215992     9.73315270     1.58541302    -0.56693417    -0.11055773    -0.09174608
Si     1.37141295     9.86766740     7.31102405     0.09536485     0.12442791     0.00374697
Si     7.07865120     4.03182068     1.40639937     0.26893806     0.16923176     0.58243573
Si     6.87066719     4.23836652     7.20971481     0.80815172     0.04734292     0.59137052
Si     7.16211410     9.83645311     1.45274257     0.41884533     0.10803109     0.10072079
Si     7.05192914     9.97715936     7.29382007    -0.48094776    -0.83035195     0.46737814
Si    11.46463894    11.04283194     3.00118672    -0.29326481     0.77146327    -0.06707143
Si    11.57682472    11.46006126     8.67676396    -0.78090358    -0.12739483     0.37277633
Si    -0.11509798     5.45268486     2.99703199     0.28021353     0.17956705    -0.01627223
Si    -0.09868633     5.62491017     8.85892306    -0.03066516     0.45993698    -0.37027138
Si     5.63148856    -0.21914277     2.90807680    -0.03826891     0.15871243     0.14798552
Si     5.69901877    11.45012693     8.74656357    -0.12541471    -0.17511345     0.34796154
Si     5.71198748     5.42438719     2.90802110     0.02309092     0.32335645     0.37014669
Si     5.75768331     5.77802708     8.86948874    -0.64273238    -0.50385869    -0.67122906
Si     1.28762971     1.23270255     4.40884119    -0.19809335     0.34581813     0.03495344
Si     1.41058512     1.51769704    10.29527943    -0.24080725     0.11614094    -0.43906593
Si     1.22790485     6.89200706     4.44806119     0.57568228     0.31877148    -0.08950133
Si     1.35092438     7.21988890    10.27695785     0.22563392    -0.44755360    -0.24130572
Si     6.94825033     1.26993685     4.44148872     0.07013421    -0.01703528    -0.17406653
Si     7.05835719     1.52528601    10.35897674     0.22132377    -0.10389941    -0.56354296
Si     7.06997425     7.04241097     4.50719607    -0.00548719    -0.45821595    -0.37180698
Si     7.14917569     7.22261585    10.33161758    -0.21668868     0.05582548    -0.13410372
Si     0.03151428     2.67841640     0.06767907    -0.45314571     0.35706747     0.15336618
Si    -0.24721369     2.64499237     5.96713513     0.20244959     0.31154609    -0.72732073
Si     0.05596852     8.81754716    11.60892452     0.01555311    -0.41472974     0.20709473
Si    11.39319662     8.46706771     5.88327752    -0.44764555    -0.23842418     0.18113029
Si     5.71686042     2.57519596    23.31975979     0.12494022     0.29268602    -0.07985162
Si     5.46734206     2.67224596     5.83942374     0.28025249     0.39320517    -0.07991504
Si     5.59895326     8.74409758    11.68635557     0.72865075    -0.48975283     0.01233581
Si     5.53672683     8.43051963     5.87398012     0.26609850     0.37968940    -0.03307006
Si     4.12964736     4.08151913     4.30390482     0.00448494     0.00057399     0.16256961
Si     4.21956196     4.27791358    10.09672974     0.18521810     0.27873921     0.26868552
Si     4.06869178     9.85777325     4.36759821     0.68265128    -0.14037606     0.48678577
Si     4.26063387    10.01651283    10.12025391    -0.26203659     0.11003844     0.30300280
Si     9.88027069     4.17837104     4.50143531    -0.11292902    -0.42205781    -0.13415450
Si     9.89062083     4.26887293    10.21353299     0.06577773     0.26615363    -0.07822767
Si     9.86466612     9.80839397     4.42651497     0.30585903     0.10018822     0.31014392
Si    10.06481603    10.10454694    10.04377989    -0.13824011    -0.21351188     0.61058307
Si     2.82372593    -0.22359891     0.01452246     0.37525475     0.34267741    -0.20261198
Si     2.69093415    11.37307976     5.91162354     0.43778139    -0.62086332    -0.18413179
Si     2.99279004     5.69457112     0.01228117    -0.39438078    -0.58155000     0.00823563
Si     2.73842664     5.57318109     5.82344567    -0.20390910    -0.41100982    -0.02679310
Si     8.71394902    11.35176884    -0.01274760    -0.51569712    -0.14045662     0.44068217
Si     8.36252073    -0.09615952     5.89386152     0.80308592     0.25413176    -0.35540479
Si     8.54207437     5.64804943     0.21471813     0.25483996    -0.36742318    -0.89179832
Si     8.54428625     5.64034434     5.95200533    -0.53815567     0.04743698    -0.05817912
Si     4.23828315     1.16093719     1.44352635    -0.07657932     0.35661608     0.01821559
Si     4.15101490     1.34734830     7.39561283    -0.28427213     0.26436579    -0.44606325
Si     4.44425785     6.95033006     1.52883946    -0.22624668     0.24705845    -0.34103784
Si     4.17102267     6.95169597     7.27881870     0.12790024     0.47762400     0.42803502
Si    10.01308207     1.32696062     1.67626697     0.20994163    -0.44609830    -0.66064519
Si     9.79275740     1.34134615     7.41954256     0.19487640    -0.02442241    -0.30810887
Si    10.12032402     7.01118506     1.59924754    -0.62795854     0.01451788    -0.16963360
Si     9.89976373     7.10837097     7.47272066     0.40798199    -0.34824425    -0.59793687
Si     2.70896399     2.63067631     2.85233566     0.44863668    -0.11769474     0.43713716
Si     2.62896669     2.86455288     8.65030565     0.61993444     0.00721715     0.42553508