128
Lattice="10.949 0.000 0.000 0.000 10.950 0.000 0.000 0.000 21.845" Properties=species:S:1:pos:R:3:forces:R:3 energy=-687.80395508 virial="-7.56583023 0.25450790 0.59053338 0.25450790 -8.48081303 4.82120180 0.59053338 4.82120180 -3.66267371"
Si     1.37184701     4.03207017     1.24462632    -0.46829817     0.77549350     0.32498014
Si     5.45867013     8.16345748    10.85626100     0.06156611    -0.10288496    -0.17694512
Si     5.46415916     2.76022854    16.39370020    -0.09514339     0.01572834     0.14543808
Si     5.53923038     2.59354589    10.92147654    -0.68604934     0.26192963     0.12218468
Si    -0.04267595     8.24399332    16.39241125     0.12764080    -0.08435425    -0.08569865
Si     0.08753352     7.99335235    10.75193180    -0.24887219     1.16228676     0.55914181
Si     0.02325260     2.77687794    16.51260313    -0.10962227    -0.08774181    -0.20200378
Si     0.08558483     2.69512540    11.01357154    -0.66919041    -0.06953587    -0.12402407
Si     6.82773793     7.04859971    20.50078910     0.08844341    -0.77125269    -0.04164325
Si     6.78499967     6.81026561    15.04758121     0.42969364     0.24810955     0.01231400
Si     6.69446808     1.30622791    20.40297799     0.20986161     0.30489069     0.25333193
Si     6.82457889     1.32819666    15.08301930    -0.14924768     0.15618029    -0.23367944
Si     1.52046508     6.79341371    20.53715790    -0.91440219    -0.05597282    -0.43167177
Si     1.36566901     6.95034593    14.94620426     0.06796894    -0.44987053     0.54579031
Si     1.41298713     4.12670274    17.86903161    -0.00445724    -0.17522779    -0.48155051
Si     1.25721665     1.31950486    20.57959054     0.59016365     0.15307805    -0.45883998
Si     5.46308464     5.58065506    19.18945663     0.11734253    -0.36065304    -0.37375131
Si     5.42942469     5.46062842    13.64915466     0.25854981    -0.22837320    -0.15834321
Si     5.32398437    10.86214058    19.10832679     0.01334039     0.46150351    -0.03693520
Si     5.51587549    10.90273070    13.59645063    -0.42393711     0.33561802     0.70273232
Si     0.01759049     5.45568792    19.17747578    -0.05651183     0.47145063     0.13596398
Si    -0.04594821     5.51903099    13.76036008    -0.18700695    -0.14241311    -0.46918014
Si     0.10528467    10.87939304    19.09654424    -0.75186610     0.04761806     0.38634753
Si     0.07053580    10.93926957    13.62495067    -0.22725739    -0.08326624     0.18472813
Si     6.75302248     9.76735134    17.64240225     0.54629731    -0.63917923     0.50172830
Si     6.70776498     9.50044210    12.26179881     1.18351269     0.25846079    -0.38793838
Si     6.87322647     4.17032855    17.82265651    -0.42409071    -0.13663337    -0.13791101
Si     6.77385723     4.01876251    12.23679485     0.44447595     0.43167305     0.61658180
Si     1.43030031     9.50714629    17.71241311     0.04651707    -0.11926809     0.29706448
Si     1.35945800     1.39822624    15.12836163    -0.11951274    -0.35895133    -0.50701529
Si     1.36540902     9.50832738    12.16483473     0.02408168     0.16616622     0.20937945
Si     5.48032013     8.29393125    16.36518032    -0.15381855    -0.80858314     0.06059762
Si     8.24667336     5.55926507    16.51124570    -0.13696565    -0.23226622    -0.45364803
Si     8.15775638     2.72090020    19.16170871     0.17195611     0.13604656     0.12794653
Si     8.10706151     2.68365387    13.69272882     0.56005085     0.23698002    -0.06363124
Si     2.83234605     8.04125106    19.10660366    -0.55562013     0.88386011    -0.18321037
Si     2.78110899     8.24000278    13.55698950    -0.22511533    -0.42379421    -0.06913689
Si     2.73304722     2.63411891    19.17553101    -0.21025246     0.32733855    -0.06807408
Si     2.61370733     2.71249077    13.63596255     0.36118981     0.15615445     0.35969031
Si     9.55810470     6.98002468    17.88870334     0.15672210    -0.35683113    -0.28237611
Si     9.58786355     6.89677426    12.28175651    -0.07461540    -0.36315662     0.25079820
Si     9.63563636     1.39753401    17.87970883    -0.06232885    -0.07559504    -0.31144333
Si     9.51153344     1.27988095    12.34750962     0.51272559     0.41289377    -0.23290655
Si     4.07777469     6.74457309    17.64732776     0.60324705     0.46005619     0.14690000
Si     4.12972356     6.78088254    12.20623539     0.01285145     0.39321113     0.46330273
Si     4.04690469     1.30632903    17.69755408     0.12501131     0.24610966     0.12277092
Si     4.07966002     4.11982585    20.46126454     0.11627502     0.04215164     0.07798146
Si     4.05408013     4.07502823    14.94891400     0.17514867    -0.17470059     0.24050370
Si     8.22879841     5.43863659    11.00128278     0.35689014    -0.31063592    -0.20797884
Si     8.30904647    11.06710663    16.40933818    -0.31072006    -0.34060419     0.00587975
Si     8.31941629    10.83310062    10.87677758    -0.90159631     0.31864950     0.47215939
Si     2.70864595     5.41394540    16.30125251    -0.29545480     0.33394629     0.22166061
Si     2.78214897     5.43065689    10.93717262    -0.22850060    -0.34798002    -0.04790950
Si     2.75443402    10.84779025    16.30576277    -0.11515378     0.33855194     0.23515166
Si     2.83162196    10.92870954    10.95681960    -0.54521573     0.27856600    -0.26306662
Si     9.48894397     9.63929381    20.55606735     0.72071105     0.07875502    -0.41119489
Si     9.57364882     9.63745421    15.00692200     0.02222789    -0.12990272    -0.00650075
Si     9.56720450     4.12074087    20.54422766    -0.16418988    -0.21190530    -0.40934187
Si     9.55518888     4.05723671    15.10027378    -0.13295636     0.39989817    -0.00265162
Si     3.92505625     9.58502396    20.53474261     0.85714614    -0.36288771    -0.15283698
Si     4.13672278     9.51113298    14.94776084    -0.07037970     0.48219764    -0.07934123
Si     4.06536562     1.35829525    12.40567846     0.37547660    -0.09641123    -0.67877257
Si     1.28523927     4.15124491    12.33976041     0.42170417     0.12866792     0.01086040
Si     8.38984344     8.23725804     8.16224498    -0.82282639    -0.04876554     0.43692815
Si     8.09894661     8.07736538     2.72039828     0.29120317     0.45428154    -0.11561063
Si     0.07392054     8.24193133     5.41249423    -0.08598970     0.12913491     0.04098490
Si    -0.03273173     8.12916274    -0.13631397    -0.00288512     0.35432321     0.61462617
Si    -0.06720609     2.78266831     5.36166755    -0.08898072    -0.30203539     0.37004977
Si    -0.12073402     2.66920240     0.03390537     0.19030687     0.15496838    -0.08989611
Si     6.97219922     6.78452706     9.60243422    -0.12374587     0.56041265    -0.38174969
Si     6.75510249     6.67900686     4.05390527     0.14363725     0.45148009     0.35767508
Si     6.89591588     1.31864389     9.54512160     0.48556465    -0.08824930     0.22269818
Si     6.89421024     1.45338063     4.09043550    -0.16119418    -0.24199343    -0.00317323
Si     1.57895302     6.76195440     9.46671595    -0.61223847     0.14902332    -0.10219672
Si     1.52517192     6.87899695     4.06386866    -0.72745740    -0.15099227     0.06852691
Si     1.50530626     1.51108825     9.57744408    -0.05925097    -0.59200954     0.22189987
Si     1.31605854     1.36556229     4.10541642     0.23700444     0.07781819    -0.37422097
Si     5.48708855     2.73216860     5.45595533     0.11983770     0.31598607     0.02999174
Si     5.59450268     5.43575387     8.26389780    -0.41087312     0.01792876    -0.15494165
Si     5.59284281    10.94452955     8.18477656    -0.72959238    -0.02857579    -0.10446089
Si     5.42954363    11.06392407     2.78459656     0.19268872    -0.20271277     0.00731019
Si     0.03365350     5.46410806     8.19137674    -0.02666487     0.09370701    -0.00388209
Si     0.05116155     5.48866571     2.67761522     0.48773751     0.17748699    -0.08587252
Si     0.10389497    11.14988642     8.21060307    -0.19340730    -0.68531048    -0.08450560
Si    -0.10556210    10.92551171     2.71875503     0.27830648    -0.23059326     0.01364471
Si     6.84271715     9.49335828     6.85859623     0.56172913     0.33272928    -0.46857500
Si     6.72107391     9.61183579     1.45423389     0.47341195    -0.02376541     0.05660763
Si     6.88699082     4.10832572     6.79679958    -0.10499502    -0.31196159     0.53017133
Si     6.84651138     4.05906664     1.30657690     0.04633689     0.20276159     0.03022125
Si     1.38689637     9.71586773     6.82368158     0.01688625    -0.27738461    -0.15713221
Si     1.24317730     9.52982402     1.29423986     0.30131397     0.17739534     0.39744079
Si     1.26470006     4.09739079     6.75770635     0.61369598    -0.13654765     0.48085773
Si     5.40688234     5.31204576     2.70324445     0.10966581     0.48494998     0.01987400
Si     5.47413252     8.28381553     0.06632816    -0.57673347     0.07498004    -0.39580172
Si     5.42548781     2.74344140    -0.04837826     0.02963154    -0.15531880     0.18837991
Si     5.47305307     8.10376350     5.50739226     0.06836092     0.26806051    -0.27491343
Si     8.25808272     2.76149987     8.25404501    -0.08031794    -0.15364492    -0.39309806
Si     8.17944350     5.47916339     5.49951578     0.64710665     0.24128613    -0.42918241
Si     8.26847889     2.78131117     2.71853937    -0.29608980    -0.10890789    -0.24898849
Si     2.77100245     8.33903872     8.15303994    -0.09633183    -0.65265417    -0.09177611
Si     2.77162851     8.28411313     2.66814886     0.04275632     0.01216536     0.29845077
Si     2.83485909     2.83800269     8.18878855    -0.57942176    -0.21096483    -0.36574367
Si     2.65455104     2.85832939     2.68922547     0.14634159    -1.03500211     0.62891269
Si     9.66307814     6.89852029     6.81626938     0.03737096    -0.51666975    -0.33015683
Si     9.61979694     6.81168891     1.34151680    -0.34394884     0.22278096    -0.01666692
Si     9.54354461     1.34704794     6.82549090     0.38136175     0.64310318    -0.09855495
Si     9.46181591     1.25900324     1.32859323     0.04271582     0.40181860     0.15937695
Si     4.12816726     6.80247257     6.93048170     0.00597406     0.04756490    -0.17000785
Si     4.17751066     6.88843547     1.39773237    -0.25187287    -0.34536308     0.12791562
Si     4.16111489     1.44377206     6.85322817     0.16554779    -0.41164622     0.14731511
Si     4.05395797     1.45038101     1.42212341    -0.05359764    -0.21912763    -0.32814014
Si     8.21174752     5.52812768    -0.03024764    -0.36420405     0.02102818     0.12438878
Si     4.02769398     4.06058495     4.14741686     0.15489952     0.25832349    -0.01887787
Si     8.22954482    10.99473910     5.42159172    -0.38014692    -0.70607495     0.24012831
Si     8.00056864    10.91669961    -0.02846577     0.45710403     0.14528944     0.30647755
Si     2.70572186     5.46580956     5.55676554     0.34194779     0.16419980    -0.46689972
Si     2.82071889     5.50327419     0.07436681    -0.08998194    -0.43995547    -0.19067088
Si     2.82592334    11.03272533     5.49582076    -0.35722888    -0.16382998    -0.34649506
Si     2.67195821    10.96594445     0.06918221    -0.11354624     0.03411246     0.09339535
Si     9.71555465     9.64139238     9.50920217     0.35589194    -0.54416829    -0.08539082
Si     9.48317669     9.50136057     4.04846592     0.31624794     0.13784257     0.19173875
Si     9.69911521     4.05135042     9.60527997    -0.42808431     0.34844822     0.16325699
Si     9.61054721     4.22871955     3.99981030    -0.35130602    -0.43714869     0.53856969
Si     4.10423714     9.60416298     9.51523068     0.63540739     0.11217968     0.19154549
Si     4.18314748     9.60026598     4.12712054    -0.42871374    -0.06708787     0.07608406
Si     4.16168668     4.04910312     9.61151068     0.42809975     0.27344459     0.02449055
Si     8.13243210     8.25522148    13.66382942     0.30028465    -0.29538211     0.00503333
Si     8.14530519     8.44261225    19.15486365    -0.20518918    -0.56056088    -0.59014404
128
Lattice="10.898 0.000 0.000 0.000 10.760 0.000 0.000 0.000 22.490" Properties=species:S:1:pos:R:3:forces:R:3 energy=-679.23327637 virial="-1.16597366 -0.68676317 1.65457165 -0.68676317 13.99400043 -13.80239487 1.65457165 -13.80239487 -34.03038025"
Si     1.16170306     4.12200284     1.39933444     1.13612533    -0.99983203    -0.24393061
Si     5.59998223     7.91582447    11.01734586    -0.18543163     0.68667984     1.82778597
Si     5.36600156     2.73954371    17.05498670    -0.25983617    -0.14930132    -0.89971381
Si     5.46881715     2.55558776    11.36155367     1.97449613     0.64956939    -0.59099275
Si     0.02806758     8.05899451    16.85417087    -0.48175147     0.33750561     0.32703203
Si     0.17689247     8.09198992    11.33737643    -1.02338862    -1.60437298    -1.53064251
Si    -0.06158802     2.68997584    16.97100700     0.08885764    -0.01297853    -0.37129006
Si    -0.10855793     2.60436446    11.39990843     1.82698178     0.91539735    -0.78783143
Si     6.68734854     6.82349491    21.06702793    -0.21535204     0.80259091    -0.16413972
Si     6.96106440     6.69420060    15.43116137    -1.19313359    -0.35914761    -0.31335318
Si     6.54549626     1.36625131    21.09025916     0.61988646    -0.46130159    -0.17308328
Si     6.80063483     1.61489558    15.65165613     0.15066116    -1.57966900    -0.86663651
Si     1.19046920     6.69330531    21.05952299     1.60065782     0.89753735     1.17005575
Si     1.29711775     6.71727078    15.54533836    -0.24823648    -0.33920017    -1.32861733
Si     1.34470184     4.04550246    18.29693428    -0.50131989     0.46180901     0.33856282
Si     1.36016838     1.30361471    21.05809102    -0.67669785     0.23259789     0.65586311
Si     5.45037427     5.45482979    19.64689915    -0.15777293    -0.28489286     0.48365819
Si     5.53519475     5.24790703    14.09789482    -0.32994905     0.64477330     0.14870602
Si     5.12627990    10.89101482    19.57550549     1.19597340    -0.96887052     0.65167105
Si     5.44676931    10.81578478    14.07451934     0.79579568    -0.70549309     0.05441627
Si    -0.11459086     5.50724598    19.75899524    -0.22502315    -1.60122228    -0.85484511
Si    -0.30736310     5.38263919    14.13052988     2.14722443    -0.51173168     0.87995946
Si    -0.05578288    10.73817205    19.76254069     0.83360809     0.15266553    -0.78631997
Si    -0.02244140    10.64299038    14.04416047     0.40996754    -0.44244900    -0.34188455
Si     6.71730110     9.49668988    18.26115204    -0.92162794     0.23591506    -0.78369564
Si     7.06974757     9.28156690    12.49197510    -1.89972341     0.00794718     1.01882422
Si     6.65926603     4.05419433    18.30189451     1.26501846     0.35050160     0.61593843
Si     6.97337073     3.94528881    12.85266244    -0.41613424    -0.32942638    -1.09546471
Si     1.37688311     9.31605741    18.29341382    -0.69897747     1.01484549    -0.19813249
Si     1.19999734     1.19493000    15.41793443     0.62486976     1.01129901     1.00535464
Si     1.44330661     9.40991864    12.53516584     0.24806489     0.67613953     1.02654910
Si     5.47396155     7.86218898    16.73139312     0.21995509     2.29841089    -0.33850557
Si     8.05473130     5.52357350    17.01275328     0.58358598    -0.59403479     0.48465103
Si     8.06988516     2.71803845    19.79782211    -0.52888656    -0.35059538    -0.72403890
Si     8.40039855     2.70734968    14.21107534    -0.97623205    -0.24742262     0.09363119
Si     2.66739173     8.04213278    19.62426433     0.56279027    -0.77094555     0.54293358
Si     2.56857524     7.85934280    13.82535037     0.88587940     0.59810913     1.10271215
Si     2.65364306     2.72095839    19.73864984    -0.06081871     0.14436820    -0.21005759
Si     2.71687377     2.60630022    14.24481826    -0.34226942    -0.11655964    -1.20145226
Si     9.57210284     6.84127674    18.35169329    -0.73150659    -0.02629798    -0.51200223
Si     9.52424796     6.67818769    12.70919586     0.25791121     0.95607436    -1.15895295
Si     9.54983325     1.39362600    18.45122009    -0.54205674    -0.01583366    -0.34306005
Si     9.64101370     1.30468246    12.76179782    -1.15549183    -0.47016290     0.19618535
Si     4.27467578     6.75139321    18.20378511    -2.27426505    -0.52486944     0.54685992
Si     4.17105199     6.64471366    12.61633837     0.15134239    -0.45309669    -0.41931051
Si     3.87266775     1.46326343    18.22117739    -0.05953064    -0.31353185     0.08473769
Si     4.15688239     4.00336344    20.99835060    -0.57038027     0.20027286     0.16366515
Si     4.07655145     3.94360951    15.53469982    -0.07860461     0.79656714     0.06187901
Si     8.36982657     5.21039537    11.34472263    -1.38113809     1.13960242     0.18557936
Si     8.16980856    10.86862924    16.98782677     0.01417284    -0.25890011    -0.51654583
Si     8.30644630    10.72308306    11.29659654     1.78697824    -0.51368010    -0.37896463
Si     2.63033449     5.41471363    16.85086203     1.06503618    -0.40828139     0.50497878
Si     2.83349309     5.15134188    11.21990106    -0.46546140     1.07348263     0.11345971
Si     2.63294686    10.75949077    16.89504945     0.06986255    -0.57974088    -0.58877277
Si     2.71513817    10.66203926    11.05020279     1.47674990    -0.02551271     1.28231907
Si     9.52619720     9.49060458    21.05879997    -1.26401746    -0.63442761     0.82783633
Si     9.53576896     9.37543804    15.45261810    -0.33111528     0.36140990     0.63223338
Si     9.37021116     4.06427313    21.07026984     0.38313961     0.56604981     0.59173441
Si     9.38530636     4.16215144    15.69620302     0.73670018    -0.55040109    -0.01035532
Si     3.98876099     9.37447800    21.06792867    -0.80205935     0.73662257     0.19834259
Si     3.95035496     9.32769801    15.35711634     0.50567985    -0.03504112     0.10806178
Si     4.11907559     1.32375527    12.62085727    -1.25691915    -0.68735945     0.67288083
Si     1.31064137     4.05143670    12.82568956     0.08037162    -0.52535903    -0.30056611
Si     8.30429117     8.07139438     8.42864782     1.49438369    -0.23502940    -0.76938385
Si     8.09774542     8.03542107     2.79603201    -0.56892872    -0.15014875     0.42227331
Si     0.09631062     8.23872391     5.49651364     0.21672262    -0.86178035     0.71618026
Si    -0.06646967     8.15642026     0.11590755    -0.14024603    -0.48735747    -1.01162374
Si     0.01076781     2.73021876     5.53569153     0.46926352     0.16006237    -0.36542788
Si    -0.17193782     2.62969766    -0.06136113     0.22801250     0.33667862     0.48315465
Si     7.08706889     6.75771026     9.81229427    -0.11996635    -1.49266791     0.11532369
Si     6.70839835     6.68326976     4.25612844     0.89250290    -0.34175950    -0.63360000
Si     7.09803650     1.21269543     9.92441962    -1.69482684     0.94556665    -0.77448016
Si     6.84516651     1.40912502     4.22239821    -0.07482503     0.18413523     0.30373684
Si     1.42691696     6.62247095     9.66007107     0.69952410     0.53375441     1.19459724
Si     1.42646843     6.87029417     4.21224310     0.30749172    -0.09763072    -0.00683430
Si     1.48553864     1.38408592     9.95727394    -0.78473353     0.83698964    -1.07483780
Si     1.16348500     1.18087562     4.06254763    -0.70834738     0.32418159     1.35464871
Si     5.57747569     2.87374487     5.67251794    -0.16081211    -0.64764488     0.01266179
Si     5.55372073     5.37246356     8.51920337     1.15664530     0.38085008    -0.15298295
Si     5.56387451    10.78809087     8.38244001     1.14559937    -0.48735720    -0.13914704
Si     5.36081776    10.89701915     2.97027354    -0.27656287    -0.48571590    -0.61995995
Si     0.06623347     5.30454298     8.36629674     0.13844223    -0.12152009     0.20176883
Si     0.12543306     5.70532505     2.72975640    -1.59331226    -1.32046127     0.03857745
Si     0.26012237    10.85767461     8.36601774    -0.66258240     0.41035774    -0.33582997
Si    -0.12472543    10.59611332     2.75541598    -1.10186362     0.92286694     0.26350689
Si     7.02857608     9.22152146     6.88777342    -1.48291206     0.60895723     1.10395205
Si     6.70661422     9.44455597     1.59728100    -0.65321159     0.05295995    -0.75790060
Si     6.97739363     4.04263744     7.23190381     0.16248937     0.48279124    -1.21998954
Si     6.74592851     4.07695446     1.23827453    -0.83657467    -0.22204980     0.43415925
Si     1.44576857     9.58256823     6.78715337     0.70314729    -0.51773649     1.08917427
Si     1.27997494     9.37258240     1.56960648     0.36820990    -0.38327837    -0.90619910
Si     1.46845195     4.00991963     7.02374712    -0.40768313     0.56356794    -1.07883930
Si     5.43687250     5.28414487     2.78856846    -0.00220503     0.15127891     0.27847660
Si     5.21231630     8.12383752     0.07714042     1.01579583    -0.37634921     0.21347749
Si     5.26876857     2.63067841     0.02369990     0.25352469     0.48440379     0.08340049
Si     5.45662079     8.05029112     5.56870284    -0.07770117     0.07950975     0.71975797
Si     8.32723308     2.62176810     8.48166317     0.02643749     0.49688277     0.56924260
Si     8.39688506     5.46567317     5.50273748    -1.15941525    -0.55121082     0.68910003
Si     8.00716913     2.82025712     2.65734343     0.73774064    -0.65332675     0.88485038
Si     2.89082439     8.04251343     8.31210714    -0.22583130     0.56112587     0.27719700
Si     2.79890909     8.20258756     2.86425478    -0.24743685    -0.77623713    -0.21951555
Si     2.74968624     2.71472880     8.34351817     1.25326288    -0.38591504     1.28750825
Si     2.56235580     2.46158293     2.99903764     0.93501508     2.38169527    -1.72378898
Si     9.86604160     6.67477186     6.85073432    -1.17024982     0.76249164     0.68211484
Si     9.32788231     6.82242243     1.31820473     0.84028184    -0.39011049     0.25691116
Si     9.59317715     1.51318690     6.91609062    -0.04781163    -1.85132217     0.40284777
Si     9.31327650     1.30459298     1.44430274     0.58025062     0.02645781    -0.51254445
Si     4.28743421     6.60675248     7.05841999    -0.61298782     0.78165603    -0.39409590
Si     4.02330059     6.62832002     1.56037524    -0.19068509     0.45690578    -1.00531816
Si     4.24404506     1.36522324     7.01952852    -0.58179569     0.55381596    -0.38416326
Si     3.88334327     1.33784087     1.38435832     0.44562513    -0.09039469     0.80748892
Si     7.94154814     5.51083318    -0.05506500     1.13642931    -0.43994969    -0.21626651
Si     4.03368872     4.04838231     4.23579284     0.05286600    -0.47626778    -0.08350869
Si     8.16031563    10.61311873     5.57959328     0.97940159     1.61075354    -0.40767783
Si     7.93240308    10.73989386     0.05173819     0.43043709     0.00042878    -0.53828049
Si     2.81411770     5.54190218     5.56937325    -0.30959707    -0.91911101     0.49301642
Si     2.79437028     5.27116207    -0.07851118    -1.09947252     0.67265880     0.57568371
Si     2.72893394    10.98655257     5.43400088     0.38136488    -0.35242563     1.08931589
Si     2.48565236    10.72891949     0.17245694     0.92062271    -0.16506961    -1.20755255
Si     9.93473503     9.36381259     9.65031172    -1.38070774     0.19704631     0.94627738
Si     9.49535968     9.23839412     4.17881145    -0.44984311     1.03212166    -0.23110719
Si     9.65288837     4.06942038     9.95269261     0.32126015    -1.08102489    -1.10170937
Si     9.50852534     3.97989300     4.11906487     0.65044099     0.91339165    -0.61539102
Si     4.38250817     9.46012411     9.83822856    -1.41823280    -0.48885229    -0.70806658
Si     4.00214484     9.45158812     4.33817832     0.95168269     0.22455975    -0.44101179
Si     4.42341994     4.03665323     9.91659848    -1.80059767    -1.00048995    -0.17449719
Si     8.24281311     7.98838406    14.08825652     0.03147285     0.63768172    -0.32421842
Si     8.04374866     8.19705849    19.51753908     0.67237675    -0.41519126     1.57946789
128
Lattice="10.908 0.000 0.000 0.000 10.862 0.000 0.000 0.000 22.031" Properties=species:S:1:pos:R:3:forces:R:3 energy=-686.71875000 virial="2.58256245 0.37047243 -1.45006490 0.37047243 10.39342117 4.24627781 -1.45006490 4.24627781 -6.32447529"
Si     1.29158335     4.04367930     1.39271430    -0.69821620     0.70545644    -0.08179699
Si     5.66694451     8.09877163    11.08015789    -0.51434433    -0.34665382    -0.72393382
Si     5.36600607     2.74035767    16.57245669     0.16038615    -0.25257927     0.04633957
Si     5.75190774     2.68164405    11.09329783    -1.49457264    -0.33506596    -0.12968269
Si    -0.04662082     8.15379104    16.54746126     0.16210690    -0.24130806    -0.02382994
Si     0.09823183     8.05981025    10.96319779     0.35959220     0.87653077     0.31418288
Si    -0.08385547     2.67469071    16.55967347     0.19282080    -0.10716081     0.52646530
Si     0.18439717     2.73751757    11.04977722    -0.88384283    -0.67595851    -0.08014369
Si     6.61923464     6.91863666    20.63161051     0.34424883    -0.70919430     0.18637016
Si     6.81470848     6.74346310    15.08409544     0.19472401     0.50064707     0.45167994
Si     6.67682043     1.33463080    20.69893347    -0.23347995     0.23334536    -0.05940771
Si     6.80449397     1.31484045    15.17542506    -0.19232476     0.57544011     0.24207541
Si     1.25815807     6.87472058    20.74097645    -0.56967270    -0.49119806    -0.77439296
Si     1.30225834     6.67324154    15.12556394     0.59926498     0.69082803     0.74250174
Si     1.18970828     4.15081788    17.88525024     0.42439097    -0.32028383    -0.02481428
Si     1.23355873     1.42668809    20.70813610     0.18512988    -0.16749728    -0.29616812
Si     5.32948854     5.46335985    19.29794253     0.02901372     0.04264658    -0.16479275
Si     5.50014940     5.34390808    13.80867904     0.08578587    -0.21514729    -0.23741248
Si     5.33693906    10.88988829    19.28483421    -0.37169671     0.10031050    -0.25487649
Si     5.57037710    10.77051067    13.81565790    -0.82844269     0.44640583    -0.15113883
Si    -0.15107618     5.41275579    19.25682177     0.01576580     0.83968127     0.50309747
Si     0.04815028     5.28997245    13.83698649    -0.49913633     0.36482292    -0.50537574
Si    -0.09029447    10.92000232    19.29137005    -0.59346402    -0.11350240     0.40576303
Si    -0.00748855    10.71122946    13.80701931     0.22917598     0.57885468     0.19523183
Si     6.62702475     9.51602392    17.85265584     0.62754256    -0.02758898     0.52811670
Si     6.89293047     9.51098189    12.47132822     0.91154790    -0.19020611    -0.85792994
Si     6.80083901     4.08218158    17.97727361    -1.03189576     0.06004044    -0.15573838
Si     7.00229422     3.99257751    12.48340381    -0.21001580     0.38662773     0.24157445
Si     1.22306591     9.59879144    17.92836553     0.44683436    -0.72882426     0.01179733
Si     1.28651310     1.35897253    15.20979450     0.06418694    -0.33322203    -0.50824833
Si     1.48917843     9.48215845    12.43201406    -0.13197768    -0.42754871    -0.48315102
Si     5.38991210     8.23986008    16.37440979    -0.04898748    -1.09648073     0.72965097
Si     8.07755889     5.45281652    16.65729630     0.10327604    -0.06209597    -0.86856174
Si     7.99888694     2.68992636    19.32482562     0.58175623     0.15248656     0.32362431
Si     8.29113733     2.68854866    13.95187614    -0.03188029    -0.14691177    -0.38897437
Si     2.61855083     8.14816462    19.33842628    -0.30539924     0.47344947    -0.38127550
Si     2.77948882     7.99206697    13.79787348    -0.18662883    -0.01809285    -0.58616948
Si     2.54052407     2.85106181    19.27670578     0.16545171    -0.63527292     0.13733706
Si     2.73015016     2.63081447    13.81816850     0.43818632    -0.02097885     0.29899305
Si     9.41995626     6.83977434    17.85630870     0.37937635     0.05436794     0.76963341
Si     9.69663065     6.78593443    12.33739014    -0.41969547    -0.60521042     0.65413433
Si     9.37620662     1.38358457    17.93198407     0.34364986    -0.15828080     0.08578376
Si     9.62648118     1.31491254    12.48631773     0.40216127     0.27708644    -0.34136730
Si     3.95898204     6.86866207    17.92933920     0.81145972     0.13480328    -0.14889616
Si     4.21191464     6.61462032    12.35857601    -0.12890346     0.85901535     0.12595698
Si     3.86272469     1.39895783    17.92010918     0.59032226    -0.13145077    -0.11277844
Si     3.96226251     4.10722158    20.66158293    -0.10622300     0.00277287     0.13250092
Si     4.05051740     4.14468149    15.21354028     0.08999199    -0.68347180    -0.27598828
Si     8.23583062     5.38523601    11.06186125     1.13449311    -0.49356693     0.01514591
Si     8.07074929    10.84472749    16.55275380     0.06935893     0.04764454     0.34073216
Si     8.50171474    10.77739811    10.96450163    -1.59893417     0.49186236     0.56013751
Si     2.74522774     5.43241659    16.64185584    -0.84689689     0.05077842    -0.62394577
Si     2.74747263     5.34970876    11.04691988     0.47682661    -0.23737201    -0.20702031
Si     2.62210220    10.78794701    16.46937385     0.23708114     0.36712274     0.38852060
Si     2.90332386    10.77842587    10.92450671    -0.53862751     0.20163661     0.14159822
Si     9.35211804     9.47912953    20.71589187     0.75358176     0.52524221    -0.51556093
Si     9.46833068     9.51431876    15.29394244     0.30729479    -0.28302711    -0.84551668
Si     9.38280967     4.13531330    20.68697127     0.13140973    -0.40423381    -0.33684802