48
Lattice="11.03976 0.00000 0.00000 2.76747 4.63883 0.00000 0.44646 0.32259 13.78918" Properties=species:S:1:pos:R:3:force:R:3 pbc="T T T" energy=-180021.5048 virial="-295.1490 -31.1204 28.3943 -31.1204 -382.4020 -3.7151 28.3943 -3.7151 -281.4130"
Ag     4.62648651     4.24858964    11.36128788     6.68651729    -3.01443137   -10.64417296
Ag    10.75338843     3.36300551     1.84225775     0.10714946    -0.37364946     2.34411614
Ag     6.60303921     4.90629323    13.38856094    -1.57369983     0.59755157     1.11545797
Ag    10.97843739     1.86127812     4.31879524    -0.24484564     1.09799962    -0.48133943
Au    12.40105033     2.63426492     6.73346522     3.21135229    -2.07225919    -1.42099836
Au     7.44439422     4.03801099    11.08201522     0.56273735     2.26251140    -1.98411707
Au     5.56358754     4.72210737     6.82523977    -0.93859865     1.70886098     1.00026208
Au     6.66606407     3.64637843     4.09909013     3.68310097    -0.22098097     0.63026537
Au     8.10420168     0.22040595     6.71491627     2.62917300     0.95763813    -1.21289196
Au     3.33715777     3.39073941     8.97880487     0.70535055     0.80161157    -1.58787436
Au     6.47896851     0.43507989    13.51427648     1.42686041    -0.05761738    -0.83409495
Au     2.50536032     1.30127826     4.58489558    -0.94502328     2.70665959     0.03600389
Au     5.29110620     3.36365874     2.00529800     1.44456534    -0.58927522     0.72287457
Au    11.99982576     4.77586731    13.56495412    -0.96427894     0.79294298    -3.48426859
Au    11.46241601     3.37622024     8.86787103    -0.88663593    -1.75139608     2.23773085
Au     9.81442134     2.04106265     0.07103940    -0.40256283     1.67649425    -2.56214697
Au    10.28224922     3.78559080    11.59177090    -1.02763050     0.42314189     0.19718620
Au     9.41603995     4.15048231     3.89755273    -1.19559553    -0.38193717     1.22362692
Au     7.25357751     0.79998627     9.08923331    -1.79172979     3.27553298    -0.86183224
Au    11.64958963     1.66926608    10.86120840    -1.22229605     2.51561477     1.13601350
Au    12.37405467     4.12666467     4.48948718     0.51449090    -3.71451558     0.47614616
Au     9.04784784     1.29773015    11.12005880    -3.06979944     2.97149457     0.88860513
Au    13.14134945     3.94142871    11.09426367    -1.17917002    -1.79806448     2.29810642
Au    10.05898863     0.82580176     8.81283682     1.31294901     1.66054231    -0.47777378
Au    10.89919949     0.40145931     6.53902985     1.47679379    -0.41634519    -1.70781826
Au     4.46699295     2.43161413     6.56057214    -4.35611750    -1.79746010     1.26603201
Au     9.50796813     0.75181213     2.17729362    -1.86621485     1.77215667     2.18807399
Au     0.89061660     1.02915341     2.03459976     2.37202262     1.33423174    -1.40524064
Au     5.80269767     3.08045674     9.02088952     2.02123705     2.52996962    -1.47191278
Au     8.09764111     3.56430590     1.72333771    -2.64529248     0.25335418     1.55772125
Au     8.30070407     1.49499461     4.31990893    -0.88037545     3.57162335     1.72573505
Au     2.55907296     3.36785979     2.21143163     1.45984535    -2.73932911     0.42320762
Au     3.55192361     2.03063853    11.69170588     0.64243821    -4.13448225    -2.65503756
Au     6.02503931     1.85454259    11.13234853     0.77188128    -2.10828005     2.33417257
Au     4.53280780     0.82592079     8.88143209     1.08056474    -1.84710357    -1.41070716
Au     9.55065583     2.69914794     6.75856515     0.86211838    -4.07368063    -0.63135401
Au     8.30792337     4.69263239     6.35428035    -1.78853513     1.57999383    -1.11388389
Au     7.01512188     1.21922599     1.84564683    -0.65799329    -0.05037188     1.34963080
Au     8.92756966     3.12851717     9.22612486    -1.21692613    -0.72009857     0.09966414
Au     2.02062830     1.23559940     8.92186588    -0.49491120    -1.92234675    -0.66379534
Au     7.70918593     2.76412698    13.11317960     2.09309740    -3.10959977     0.30702806
Au     6.86916467     2.45829431     6.41778758     1.75059363     0.46263538     0.98826042
Au     3.98038878     3.81760696     4.50048581    -2.32098551     1.42461866    -1.39839705
Au     5.11806624     2.58144717    13.73622652    -1.30055143     1.06530885    -1.07448725
Au     3.52880699     1.14413287     1.97225631    -0.35652916    -1.52638332    -0.01267617
Au     4.96397537     1.59841440     4.09155929     1.60934009    -1.13468438    -0.48394920
Au     2.07979927     2.64352038    13.51283346    -0.86174357     0.56353104     3.99143773
Au     1.15029841     0.35089840    13.23296363    -4.23578125     1.54779703     9.04201974
48
Lattice="11.03976 0.00000 0.00000 2.76747 4.63883 0.00000 0.44646 0.32259 13.78918" Properties=species:S:1:pos:R:3:force:R:3 pbc="T T T" energy=-180021.2606 virial="-295.9940 -31.7577 28.2902 -31.7577 -383.2080 -3.7182 28.2902 -3.7182 -282.6490"
Ag     4.62296019     4.24547503    11.36827135     6.58781737    -3.27801231   -10.94637912
Ag    10.74943355     3.37560309     1.83460694     0.05516046    -0.73800792     2.47194633
Ag     6.59042142     4.89958870    13.39019168    -1.30501508     0.67700098     1.17019049
Ag    10.98819744     1.85252364     4.32856941    -0.33588288     1.12543941    -0.59340496
Au    12.39369856     2.63706186     6.72257648     3.33926696    -2.10559727    -1.29098345
Au     7.43812881     4.03267615    11.07804970     0.54744730     2.29774139    -1.91439389
Au     5.57082952     4.71819789     6.81719589    -1.08558397     1.76075873     1.18621776
Au     6.67148452     3.64894627     4.09049365     3.67664151    -0.32231060     0.90601557
Au     8.10092612     0.21412662     6.71614323     2.71940269     1.11465509    -1.27896459
Au     3.32726922     3.38206821     8.98754190     0.89649685     1.00186985    -1.57749130
Au     6.48890882     0.43576182    13.52345225     1.29449253     0.12671567    -1.18705451
Au     2.51039326     1.30924049     4.58778132    -1.00900576     2.48103321    -0.00463785
Au     5.29302342     3.36577076     2.01415689     1.35672943    -0.58230522     0.61072200
Au    11.99530602     4.77137583    13.57094192    -0.84181203     0.75651488    -3.80997478
Au    11.47119345     3.37763409     8.86303919    -0.82490645    -1.90774171     2.34284348
Au     9.80577143     2.03125283     0.07074827    -0.23737983     1.88212402    -2.60891633
Au    10.28061519     3.79447224    11.58691731    -1.08629257     0.41557925     0.27111133
Au     9.41042387     4.14361872     3.89419189    -1.12609139    -0.34406572     1.42410293
Au     7.25746570     0.79881734     9.09759256    -1.74522502     3.35136863    -0.87417630
Au    11.64384766     1.66795508    10.86614980    -1.09937949     2.46719793     0.95400896
Au    12.36996580     4.12318158     4.49436020     0.51500013    -3.66295253     0.38890032
Au     9.05739040     1.30017625    11.11717698    -3.17883410     3.05817609     0.98503776
Au    13.13086668     3.93767235    11.10178309    -0.96842346    -1.92165258     2.31671441
Au    10.05646456     0.83091752     8.80508119     1.31574117     1.67148266    -0.30010423
Au    10.90377232     0.41120306     6.54262251     1.47738756    -0.63988433    -1.70713295
Au     4.47482398     2.42419124     6.55000779    -4.46665917    -1.62799296     1.43720107
Au     9.51534262     0.74236074     2.17021073    -2.09441176     1.80582360     2.35696213
Au     0.88214772     1.03408638     2.04029552     2.60373026     1.37243911    -1.36569621
Au     5.80578431     3.08011550     9.02203062     1.80648448     2.52042185    -1.37604424
Au     8.10712577     3.56971624     1.71935859    -2.93169504    -0.11161727     1.65456683
Au     8.30833570     1.48967774     4.31178215    -1.02301709     3.68571884     1.78357712
Au     2.56151773     3.35886800     2.21514125     1.54701590    -2.74955686     0.40120777
Au     3.54434153     2.01948631    11.70060809     0.75787627    -3.86062022    -2.72760072
Au     6.02671660     1.85015923    11.13834349     0.64924157    -2.08736340     2.40442661
Au     4.53797897     0.82460094     8.87193216     1.11957465    -1.84007695    -1.43072844
Au     9.54915873     2.70040824     6.76429601     0.67869373    -4.04593961    -0.68930110
Au     8.31226230     4.70138427     6.34884546    -1.76873872     1.33986857    -1.27086390
Au     7.00824709     1.20875339     1.85357408    -0.48421236     0.36525478     1.47130078
Au     8.93374217     3.13514926     9.22696723    -1.24191357    -0.77459067     0.10095354
Au     2.02787672     1.23296136     8.92765977    -0.59093180    -2.12575981    -0.77579234
Au     7.71785959     2.77067336    13.12205180     1.96897854    -3.10437506     0.14288776
Au     6.87393070     2.45865896     6.42773591     1.95714440     0.50418078     0.92658097
Au     3.97360623     3.82009860     4.50422466    -2.20760186     1.64110877    -1.40173956
Au     5.12128619     2.58553022    13.74585079    -1.32842127     0.83167414    -1.18627941
Au     3.53523197     1.13719803     1.97739786    -0.48935757    -1.54031555    -0.17938525
Au     4.95825908     1.60517860     4.08616695     1.84540471    -1.18449696    -0.43678664
Au     2.07134285     2.63614299    13.52086629    -0.75462955     0.80099117     3.95408784
Au     1.15823865     0.35292831    13.23570585    -4.48868443     1.49640674     9.27801355
48
Lattice="11.03976 0.00000 0.00000 2.76747 4.63883 0.00000 0.44646 0.32259 13.78918" Properties=species:S:1:pos:R:3:force:R:3 pbc="T T T" energy=-180021.1016 virial="-296.8180 -32.5136 27.9944 -32.5136 -383.8390 -3.5235 27.9944 -3.5235 -283.5360"
Ag     4.62180494     4.24120967    11.37130834     6.36390442    -3.40663070   -10.95715370
Ag    10.74552194     3.38786223     1.82788358     0.00868391    -1.10817444     2.59095103
Ag     6.57741341     4.89316568    13.39223012    -1.03236416     0.72418658     1.21852472
Ag    10.99777943     1.84422286     4.33807358    -0.43405383     1.14354745    -0.70975763
Au    12.38704301     2.63943077     6.71150051     3.45217596    -2.12093078    -1.14414492
Au     7.43200773     4.02782201    11.07373385     0.53497483     2.32293485    -1.82740506
Au     5.57781621     4.71465571     6.80943174    -1.22710272     1.79242207     1.34959157
Au     6.67759090     3.65143583     4.08212545     3.65019050    -0.41102578     1.18147232
Au     8.09820136     0.20810250     6.71711302     2.79399438     1.25115267    -1.33386045
Au     3.31761481     3.37364449     8.99591862     1.07055072     1.20376990    -1.55942712
Au     6.49904271     0.43646443    13.53234137     1.16411833     0.30912546    -1.53171223
Au     2.51519905     1.31763990     4.59064893    -1.06073792     2.24966250    -0.04709830
Au     5.29519424     3.36775642     2.02308223     1.25812550    -0.58136582     0.49404302
Au    11.99064879     4.76705894    13.57614969    -0.71819913     0.72194779    -4.12202534
Au    11.47975737     3.37866682     8.85869388    -0.75956815    -2.03912755     2.42824471
Au     9.79712677     2.02186925     0.06994920    -0.06426962     2.08300163    -2.63124357
Au    10.27877870     3.80338186    11.58214564    -1.14237711     0.40766418     0.33961320
Au     9.40462131     4.13672887     3.89112932    -1.04516250    -0.30572449     1.62373007
Au     7.26098974     0.79831011     9.10573116    -1.69137055     3.41134168    -0.89460756
Au    11.63792517     1.66713388    10.87124808    -0.96041307     2.38679565     0.79031034
Au    12.36600195     4.11900369     4.49928012     0.50099983    -3.58029614     0.28930343
Au     9.06625500     1.30320519    11.11450479    -3.27734949     3.12086284     1.06529108
Au    13.12025728     3.93356299    11.10971022    -0.74653152    -2.02579927     2.33672556
Au    10.05421260     0.83632929     8.79731322     1.30262661     1.66713874    -0.11897933
Au    10.90860648     0.42076366     6.54586024     1.47948365    -0.86725145    -1.69401554
Au     4.48173568     2.41649459     6.53978725    -4.54767547    -1.44050147     1.59002723
Au     9.52226394     0.73331853     2.16363056    -2.30223703     1.81931865     2.50757987
Au     0.87423802     1.03925804     2.04569048     2.82080169     1.40086283    -1.31421030
Au     5.80920544     3.08026869     9.02289608     1.59659396     2.48913616    -1.27778688
Au     8.11598111     3.57507249     1.71572643    -3.21050874    -0.45845141     1.74328077
Au     8.31572194     1.48511262     4.30405229    -1.14354509     3.77101686     1.83578161
Au     2.56425014     3.34939273     2.21890711     1.61526554    -2.72209008     0.37908308
Au     3.53695274     2.00764644    11.70892432     0.84017962    -3.55996637    -2.78044486
Au     6.02851072     1.84539424    11.14477240     0.54248165    -2.06238517     2.46291744
Au     4.54333801     0.82292949     8.86220942     1.15665938    -1.81836806    -1.45086288
Au     9.54780315     2.70087063     6.76985801     0.49700476    -3.98197113    -0.74660113
Au     8.31622980     4.71034569     6.34319473    -1.72995271     1.08330196    -1.42096135
Au     7.00131873     1.19841465     1.86174144    -0.32097665     0.77141579     1.58706360
Au     8.93963523     3.14159045     9.22782428    -1.26096499    -0.82484271     0.09529047
Au     2.03496644     1.22992379     8.93326754    -0.68500674    -2.32090794    -0.86498118
Au     7.72686615     2.77657422    13.13089897     1.82199964    -3.06523637    -0.03128603
Au     6.87905063     2.45911993     6.43780588     2.13024813     0.54020290     0.88793371
Au     3.96643289     3.82289599     4.50766735    -2.07825485     1.83743805    -1.40257735
Au     5.12422742     2.58975138    13.75518589    -1.35272623     0.60669236    -1.29202705
Au     3.54152300     1.13000366     1.98247367    -0.61067314    -1.55302462    -0.34801904
Au     4.95293741     1.61167103     4.08072146     2.07093596    -1.22168095    -0.38485686
Au     2.06278948     2.62896610    13.52962365    -0.62479985     1.04168966     3.88750932
Au     1.16525461     0.35523843    13.24024424    -4.64420345     1.31702143     9.20166902
48
Lattice="11.03976 0.00000 0.00000 2.76747 4.63883 0.00000 0.44646 0.32259 13.78918" Properties=species:S:1:pos:R:3:force:R:3 pbc="T T T" energy=-180021.0333 virial="-297.5230 -33.3607 27.5275 -33.3607 -384.2070 -3.1373 27.5275 -3.1373 -283.9850"
Ag     4.62292687     4.23579627    11.37040932     6.01605649    -3.39324997   -10.66647504
Ag    10.74167026     3.39954966     1.82217818    -0.02932490    -1.46739316     2.69589789
Ag     6.56422769     4.88709320    13.39467175    -0.76117028     0.73721124     1.25944010
Ag    11.00706804     1.83644886     4.34718756    -0.53212207     1.15235032    -0.82455595
Au    12.38115568     2.64135270     6.70036290     3.54695463    -2.11607402    -0.98184277
Au     7.42607964     4.02349026    11.06912523     0.52445131     2.33752209    -1.72563874
Au     5.58446270     4.71151366     6.80204291    -1.35941680     1.80223373     1.48641990
Au     6.68431858     3.65380927     4.07410866     3.60496050    -0.48833656     1.45091699
Au     8.09605968     0.20240929     6.71780925     2.84930125     1.36328359    -1.37761118
Au     3.30830891     3.36557730     9.00387029     1.21951326     1.40259921    -1.53290464
Au     6.50925581     0.43721697    13.54080340     1.03586993     0.48721288    -1.85911554
Au     2.51972868     1.32635487     4.59346572    -1.09860794     2.02001368    -0.09130063
Au     5.29757825     3.36960014     2.03197400     1.15182619    -0.58377897     0.37609772
Au    11.98591952     4.76294520    13.58047997    -0.59371598     0.68422305    -4.41028707
Au    11.48804912     3.37928789     8.85488405    -0.68849539    -2.14612530     2.49125047
Au     9.78859521     2.01302717     0.06864991     0.11328470     2.26955819    -2.63092270
Au    10.27674667     3.81224134    11.57750936    -1.19379638     0.40042619     0.39906409
Au     9.39869975     4.12987966     3.88842709    -0.95381227    -0.26984150     1.82012249
Au     7.26413358     0.79847382     9.11357749    -1.62911898     3.45431060    -0.92012797
Au    11.63190191     1.66678889    10.87642602    -0.80938982     2.27526858     0.64866470
Au    12.36219313     4.11419007     4.50418484     0.46975561    -3.46396480     0.17859645
Au     9.07435331     1.30679719    11.11207864    -3.35920692     3.15787325     1.12839636
Au    13.10965680     3.92911928    11.11797673    -0.52070104    -2.10678034     2.35981489
Au    10.05224675     0.84198673     8.78963496     1.27307640     1.65036374     0.06038483
Au    10.91365819     0.43001666     6.54872140     1.48110236    -1.09311364    -1.66680293
Au     4.48766235     2.40862957     6.53002449    -4.59554865    -1.23494262     1.71941132
Au     9.52863688     0.72476159     2.15763376    -2.48048319     1.80993157     2.63609055
Au     0.86699195     1.04462705     2.05075143     3.01538771     1.41777500    -1.24875705
Au     5.81288743     3.08090383     9.02350042     1.39306578     2.43765756    -1.17896277
Au     8.12408328     3.58026175     1.71248616    -3.47485567    -0.78513320     1.81971770
Au     8.32277842     1.48134737     4.29679184    -1.23819706     3.82275286     1.88065022
Au     2.56725704     3.33952561     2.22269200     1.66336619    -2.65960584     0.35614863
Au     3.52983474     1.99528611    11.71657888     0.89003490    -3.24136675    -2.80791131
Au     6.03038430     1.84029731    11.15158699     0.45231214    -2.03604335     2.51190175
Au     4.54884418     0.82092862     8.85234571     1.19365730    -1.78502534    -1.46964327
Au     9.54656394     2.70055172     6.77519398     0.32082615    -3.88453105    -0.80125377
Au     8.31980315     4.71938763     6.33734969    -1.66859303     0.81602219    -1.56415635
Au     6.99442860     1.18837616     1.87009887    -0.17276970     1.16405835     1.69882954
Au     8.94519738     3.14777761     9.22868742    -1.27083379    -0.86879165     0.08256412
Au     2.04181991     1.22647888     8.93862558    -0.77412820    -2.50542957    -0.93169986
Au     7.73609628     2.78179310    13.13961152     1.65316197    -2.99004579    -0.21008412
Au     6.88451056     2.45967929     6.44790228     2.26833211     0.56907616     0.87107872
Au     3.95895950     3.82601014     4.51078720    -1.93816370     2.01009689    -1.40034084
Au     5.12686278     2.59402922    13.76413404    -1.37500054     0.39230582    -1.38935412
Au     3.54760385     1.12261172     1.98740805    -0.71627084    -1.56530007    -0.51706061
Au     4.94809590     1.61783149     4.07528022     2.28432345    -1.24387098    -0.33045629
Au     2.05423884     2.62209611    13.53900998    -0.47614329     1.28130908     3.79486813
Au     1.17126525     0.35777118    13.24650659    -4.70312099     1.01082498     8.81910019
48
Lattice="11.03976 0.00000 0.00000 2.76747 4.63883 0.00000 0.44646 0.32259 13.78918" Properties=species:S:1:pos:R:3:force:R:3 pbc="T T T" energy=-180021.0528 virial="-298.1850 -34.2784 26.9147 -34.2784 -384.3920 -2.5977 26.9147 -2.5977 -284.1110"
Ag     4.62615202     4.22930374    11.36575686     5.57132348    -3.25686166   -10.12306716
Ag    10.73789453     3.41045598     1.81755442    -0.05932087    -1.82296091     2.78206194
Ag     6.55106823     4.88141764    13.39750422    -0.48954706     0.72385057     1.28984974
Ag    11.01596019     1.82925679     4.35580555    -0.64701540     1.15376090    -0.95016062
Au    12.37608752     2.64282157     6.68928470     3.63172900    -2.09591688    -0.79616939
Au     7.42038604     4.01970849    11.06428558     0.51701056     2.34410679    -1.61129102
Au     5.59069683     4.70879121     6.79510769    -1.48794102     1.79338298     1.60457703
Au     6.69159393     3.65603489     4.06655267     3.54100647    -0.55794241     1.71692944
Au     8.09451804     0.19710781     6.71822297     2.88667228     1.45306763    -1.41153074
Au     3.29944787     3.35796268     9.01134674     1.34971189     1.59853231    -1.50312531
Au     6.51944069     0.43804704    13.54871556     0.90554257     0.65864855    -2.16673533
Au     2.52394394     1.33526588     4.59620169    -1.12276947     1.78903113    -0.13653556
Au     5.30013199     3.37128944     2.04073933     1.03991535    -0.59126720     0.25662597
Au    11.98118122     4.75905623    13.58385872    -0.46930198     0.64527550    -4.67136204
Au    11.49602162     3.37947923     8.85164227    -0.61350439    -2.23078309     2.53439967
Au     9.78027682     2.00482300     0.06687002     0.29717386     2.44250309    -2.60898610
Au    10.27452890     3.82097983    11.57305432    -1.24107118     0.39169792     0.45334860
Au     9.39272612     4.12313167     3.88613807    -0.84997252    -0.23415621     2.01098291
Au     7.26689131     0.79930312     9.12106968    -1.56259858     3.48203692    -0.95368970
Au    11.62585684     1.66689245    10.88161358    -0.64768360     2.13603700     0.52354687
Au    12.35856070     4.10881320     4.50901422     0.42291577    -3.31267337     0.05671880
Au     9.08161927     1.31092050    11.10992550    -3.42680403     3.16773635     1.17665629
Au    13.09919303     3.92436699    11.12651515    -0.29069721    -2.16314724     2.38101506
Au    10.05057161     0.84783711     8.78214050     1.23275257     1.61701774     0.23942200
Au    10.91888364     0.43885047     6.55119550     1.48075033    -1.31994830    -1.62642424
Au     4.49256581     2.40070156     6.52081369    -4.61449943    -1.00901861     1.83310500
Au     9.53438639     0.71674711     2.15228210    -2.62876302     1.78456953     2.74315907
Au     0.86049251     1.05015041     2.05545699     3.18578979     1.42359153    -1.17234243
Au     5.81675680     3.08199702     9.02386279     1.19124469     2.37095968    -1.08049915
Au     8.13133061     3.58518257     1.70967107    -3.72526335    -1.09382241     1.87987621
Au     8.32943685     1.47840715     4.29005849    -1.30928140     3.84276125     1.92476099
Au     2.57051883     3.32936437     2.22646105     1.69107638    -2.56216135     0.33109232
Au     3.52304872     1.98257482    11.72351784     0.91447526    -2.90606425    -2.81685906
Au     6.03230351     1.83492014    11.15873552     0.37478361    -2.00527694     2.55115054
Au     4.55445820     0.81862675     8.84241836     1.22876880    -1.73886823    -1.48304512
Au     9.54541467     2.69948735     6.78025510     0.15136980    -3.75556687    -0.85587391
Au     8.32297312     4.72838501     6.33133262    -1.58736682     0.53836890    -1.69837183
Au     6.98765942     1.17878821     1.87859811    -0.03506319     1.54523309     1.80352254
Au     8.95038865     3.15365777     9.22954722    -1.27349975    -0.90852913     0.06370314
Au     2.04836978     1.22262577     8.94368300    -0.85910432    -2.67876401    -0.98387541
Au     7.74543981     2.78631568    13.14808808     1.46035672    -2.88442548    -0.39462572
Au     6.89028758     2.46033636     6.45794114     2.36964351     0.59318282     0.86733386
Au     3.95127811     3.82944395     4.51356581    -1.78607885     2.15908338    -1.39496156
Au     5.12917267     2.59828719    13.77261244    -1.39625735     0.18562192    -1.48111146
Au     3.55340962     1.11508219     1.99213165    -0.81009555    -1.57451621    -0.68770304
Au     4.94380548     1.62361288     4.06989691     2.48561622    -1.25262843    -0.27059025
Au     2.04578760     2.61562835    13.54892116    -0.31003719     1.51998341     3.67686797
Au     1.17622995     0.36044300    13.25433725    -4.68574338     0.59545706     8.17784696
48
Lattice="10.84642 0.00000 0.00000 2.77157 4.62175 0.00000 0.34432 0.69590 13.96911" Properties=species:S:1:pos:R:3:force:R:3 pbc="T T T" energy=-180018.8889 virial="-324.3790 -28.7966 24.3998 -28.7966 -412.5150 4.0216 24.3998 4.0216 -267.2140"
Ag     4.51955429     4.55399721    11.52200346     6.62825248    -3.24219085    -9.25993176
Ag    10.58840339     3.40254651     1.87645486    -0.21684592    -0.50802904     2.00329378
Ag     6.43866647     5.25358541    13.56919938    -1.40608759     0.55713881     1.31611023
Ag    10.77070451     1.97544242     4.39134839    -0.13726661     1.09178881    -0.90386689
Au    12.15498857     2.81257939     6.83480225     3.35424338    -1.94988358    -1.33174768
Au     7.28175427     4.33243001    11.23324449     0.70138905     2.08484274    -2.10067367
Au     5.46909409     4.91892548     6.92298230    -1.13368183     1.38106781     1.25823981
Au     6.55666931     3.72681426     4.14159749     3.76903522     0.08921457     0.67427665
Au     7.90832457     0.39805869     6.79829351     2.98264804     1.08392578    -0.83472763
Au     3.26256040     3.63839839     9.11301080    -0.09501886     0.32199689    -1.28138731
Au     6.28081794     0.79068619    13.68548822     1.63674462    -0.31192451    -0.73889948
Au     2.43617393     1.42053606     4.64500399    -0.97361459     2.92024288     0.13150725
Au     5.22485583     3.39720812     2.03559316     1.26001709    -1.00940737     0.08859736
Au    11.75299758     5.12746172    13.74684195    -0.84455061     1.28314642    -3.23400725
Au    11.23836917     3.60042225     8.98986377    -0.56344655    -1.66453414     1.84374762
Au     9.65268738     2.04470295     0.07286108     0.05422304     2.00271388    -2.17672724
Au    10.06432094     4.08823429    11.73365538    -1.25947333     0.52399646     0.51829340
Au     9.26419387     4.24422564     3.95849064    -0.99841362    -0.45433658     0.88363589
Au     7.07039436     1.04402210     9.19441462    -1.61376038     3.51499648    -0.96485923
Au    11.39625814     1.95462198    11.00797604    -1.04259406     2.93894964     0.71456615
Au    12.16911014     4.23906543     4.54298013     0.75217939    -4.16553030     0.64852710
Au     8.82488131     1.60419472    11.28330395    -3.40490105     3.56656274     0.46379660
Au    12.86194422     4.23464215    11.23227910    -1.10984826    -2.23340723     2.13401370
Au     9.83312373     1.06659744     8.92505384     1.14294177     1.87233127    -0.56432831
Au    10.67020154     0.58224643     6.63035226     1.53048027    -1.02112169    -1.67086033
Au     4.37064420     2.59678478     6.64969967    -5.06425234    -1.25982795     1.29353440
Au     9.33226578     0.81566945     2.20262750    -2.17406808     1.86046800     2.61422842
Au     0.87188730     1.07872744     2.05283791     2.50254499     1.17356747    -1.27800177
Au     5.66290504     3.31280597     9.14816857     2.85647202     2.72801823    -1.72512210
Au     7.97178474     3.59721046     1.74657717    -2.57290655     0.43544158     1.63727350
Au     8.14195421     1.62715718     4.37578513    -1.09776250     3.61092645     1.55589805
Au     2.52779518     3.40113043     2.24633939     1.40136434    -2.45033997     0.72220093
Au     3.44297735     2.34280288    11.84499591    -0.11007484    -4.19237946    -2.26355622
Au     5.84950385     2.14473078    11.26746117     1.69294288    -2.25586673     2.37527603
Au     4.40054141     1.05720451     8.98867581     1.23659667    -1.89046260    -1.64638551
Au     9.38083971     2.85598544     6.83503499     0.82873678    -4.18779241    -0.16026060
Au     8.18312766     4.86239612     6.43606082    -2.46325304     1.40448720    -1.38453843
Au     6.89431287     1.25734526     1.87199782    -1.31338077    -0.04032827     0.94568943
Au     8.73770873     3.36753792     9.35014069    -1.63196706    -0.72831037    -0.06041429
Au     1.92659055     1.47027618     9.04045936    -0.68078537    -1.96940567    -0.65362365
Au     7.50887488     3.09982061    13.28058583     1.94438701    -2.97919172     0.31154468
Au     6.73289344     2.62441032     6.50397106     2.35825287     1.05405599     0.95225902
Au     3.93487617     3.92070463     4.54948386    -2.46814578     1.49956576    -1.49239919
Au     4.96231061     2.94362603    13.91897327    -1.36912190     1.27808797    -0.45742477
Au     3.45447186     1.19254540     1.99012052     0.12432663    -1.92760653     0.03987409
Au     4.86977214     1.69030732     4.14721206     1.36843259    -1.10006640    -0.45345081
Au     1.96768929     3.00057625    13.68692791    -0.36234823     0.01071524     3.65254014
Au     1.03113449     0.71342513    13.40724977    -4.01932187     1.25170624     7.85727971
48
Lattice="10.84642 0.00000 0.00000 2.77157 4.62175 0.00000 0.34432 0.69590 13.96911" Properties=species:S:1:pos:R:3:force:R:3 pbc="T T T" energy=-180018.6563 virial="-325.1830 -29.5185 24.2883 -29.5185 -413.3280 3.9943 24.2883 3.9943 -268.2980"
Ag     4.51601755     4.55084185    11.52923457     6.51860496    -3.48877720    -9.54327868
Ag    10.58439055     3.41512005     1.86874308    -0.23123160    -0.87666422     2.14554969
Ag     6.42607867     5.24687365    13.57086601    -1.10385239     0.63699770     1.38965999
Ag    10.78048380     1.96668683     4.40104697    -0.23776650     1.12813848    -1.02224411
Au    12.14765080     2.81538832     6.82392226     3.50449353    -1.99291730    -1.19646697
Au     7.27550244     4.32707775    11.22926755     0.68751709     2.11276571    -2.03450732
Au     5.47631696     4.91498388     6.91496369    -1.27769826     1.42835375     1.44289642
Au     6.56209819     3.72941250     4.13300532     3.73804655    -0.01776380     0.96573160
Au     7.90508364     0.39179173     6.79955753     3.08863189     1.24799299    -0.90544979
Au     3.25259343     3.62968021     9.12177785     0.12732913     0.52643076    -1.25141104
Au     6.29077882     0.79134321    13.69467332     1.47401500    -0.12117587    -1.07727080
Au     2.44120407     1.42851922     4.64789909    -1.03767972     2.68447573     0.08796067
Au     5.22675496     3.39927898     2.04438991     1.19285068    -1.00205891    -0.03415518
Au    11.74848956     5.12301826    13.75285427    -0.69228498     1.22545796    -3.55115102
Au    11.24717828     3.60184461     8.98499333    -0.50847168    -1.83080114     1.94720259