12
Lattice="3.47900 -0.00000 -0.00000 0.02400 3.47900 -0.00000 -0.01100 0.11700 9.34100" Properties=species:S:1:pos:R:3:force:R:3 pbc="T T T" energy=-11990.369848880768 virial="3.6264 -1.6013 5.0251 -1.6013 3.6188 -1.2576 5.0251 -1.2576 2.9522"
Ag     0.05992581     1.84488897     8.70219114    -6.21023956     5.59414850   -36.98983879
Ag     1.74523753     1.91745337     7.15531537     0.99760536    -5.40001727   -14.10288374
Ag     0.04795372     1.69395569     5.37423190    -3.42230432     5.80700080    -2.29211491
Ag     3.45229544     3.50679544     7.02295356     0.19638585     2.56438039    -4.69403489
Ag     1.68041696     0.16159564     5.36167440     4.50195194    -4.31419072    -1.48156408
Ag     1.71082635     3.56778064     8.61467972    -3.85219859    11.14266838   -31.20535474
Ag     0.03339900     1.75264327     1.79633933    -1.09883688    -1.40906192     8.03611019
Ag     3.40518902     0.04475622     0.19183269     2.41299064    -7.44902569    34.66394810
Ag     1.70728709     3.44378948     1.79406063     1.90630447     4.20559906     6.28877318
Ag     1.77154263     1.77485116     0.15370929     6.78762442    -9.05644140    39.71315214
Ag     0.11058799     3.44716057     3.64412058    -3.11941310     3.40244704    -1.72301692
Ag     1.81863256     1.86977701     3.49545260     0.87893388    -5.09583713     3.71091770
12
Lattice="3.47900 -0.00000 -0.00000 0.02400 3.47900 -0.00000 -0.01100 0.11700 9.34100" Properties=species:S:1:pos:R:3:force:R:3 pbc="T T T" energy=-11990.505664220107 virial="3.6212 -1.4469 5.4457 -1.4469 3.6150 -1.2721 5.4457 -1.2721 2.9520"
Ag     0.06143401     1.84407099     8.70017520    -6.47455305     5.25755280   -36.78021038
Ag     1.74563260     1.91691905     7.15402627     1.06283626    -5.42075186   -14.02896281
Ag     0.04678996     1.69354764     5.37273731    -3.29566439     5.77880276    -2.22339615
Ag     3.45474327     3.50511493     7.02380978     0.12656414     2.64127232    -4.77977881
Ag     1.68285911     0.16062705     5.36204214     4.33421721    -4.28266517    -1.49866026
Ag     1.71112357     3.56756066     8.61529260    -4.14108802    11.60021228   -31.34750103
Ag     0.03292399     1.75188243     1.79796754    -1.11830380    -1.35459947     7.94129352
Ag     3.40269465     0.04305355     0.19232883     2.74592332    -7.15713076    34.60477932
Ag     1.70528378     3.44565035     1.79303545     1.92141393     4.12799903     6.41464840
Ag     1.77111916     1.77765646     0.15458315     7.03338755    -9.51272536    39.69861711
Ag     0.10939949     3.44998870     3.64311016    -3.01052134     3.27662426    -1.69390831
Ag     1.81928956     1.86937528     3.49744937     0.79776507    -4.96187076     3.61902546
12
Lattice="3.47900 -0.00000 -0.00000 0.02400 3.47900 -0.00000 -0.01100 0.11700 9.34100" Properties=species:S:1:pos:R:3:force:R:3 pbc="T T T" energy=-11991.171936202836 virial="3.6005 -1.3741 5.6472 -1.3741 3.5948 -1.2541 5.6472 -1.2541 2.9526"
Ag     0.06235440     1.84372744     8.69489543    -6.48659002     4.70528374   -36.21767572
Ag     1.74611959     1.91590539     7.15149596     1.12048759    -5.39444938   -13.88546373
Ag     0.04534075     1.69365756     5.37105519    -3.13792938     5.71938237    -2.16407953
Ag     3.45718495     3.50368179     7.02423388     0.05458134     2.71967696    -4.88819326
Ag     1.68567018     0.15928365     5.36227369     4.12800186    -4.22768664    -1.53413843
Ag     1.71104959     3.56837616     8.61310715    -4.28676460    11.64829740   -31.11031315
Ag     0.03235269     1.75100628     1.80029197    -1.11019012    -1.29041219     7.85327706
Ag     3.40046278     0.04072510     0.19590572     3.02134253    -6.65211496    34.19318989
Ag     1.70346598     3.44786589     1.79258930     1.92337237     4.02334384     6.57293164
Ag     1.77132558     1.77959392     0.15898909     6.94304646    -9.58859470    39.23366089
Ag     0.10795112     3.45308873     3.64195596    -2.88405291     3.13475322    -1.65181742
Ag     1.82001299     1.86853416     3.49975449     0.69982232    -4.80327444     3.52784861
12
Lattice="3.47900 -0.00000 -0.00000 0.02400 3.47900 -0.00000 -0.01100 0.11700 9.34100" Properties=species:S:1:pos:R:3:force:R:3 pbc="T T T" energy=-11992.348609225435 virial="3.5647 -1.3826 5.6265 -1.3826 3.5590 -1.2052 5.6265 -1.2052 2.9538"
Ag     0.06269609     1.84380444     8.68635951    -6.25964621     3.97662665   -35.28510244
Ag     1.74670810     1.91440620     7.14771605     1.17039346    -5.31912403   -13.68044179
Ag     0.04360704     1.69427993     5.36917523    -2.94948568     5.62988533    -2.11401668
Ag     3.45963739     3.50248877     7.02422125    -0.02179655     2.79924892    -5.02244921
Ag     1.68885769     0.15755841     5.36236841     3.88433759    -4.15007871    -1.58786624
Ag     1.71059152     3.57023678     8.60813037    -4.27738223    11.28838553   -30.47739575
Ag     0.03168059     1.75001246     1.80332527    -1.07437054    -1.21585733     7.77698333
Ag     3.39849613     0.03779532     0.20255338     3.22834835    -5.96916741    33.42001514
Ag     1.70181606     3.45044707     1.79273072     1.91260760     3.89115928     6.76521690
Ag     1.77215428     1.78067733     0.16691918     6.53023317    -9.29074676    38.29928989
Ag     0.10624100     3.45647694     3.64065106    -2.74033419     2.97617784    -1.59608689
Ag     1.82080082     1.86726087     3.50238108     0.58521736    -4.62029483     3.43711951
12
Lattice="3.47900 -0.00000 -0.00000 0.02400 3.47900 -0.00000 -0.01100 0.11700 9.34100" Properties=species:S:1:pos:R:3:force:R:3 pbc="T T T" energy=-11993.978232094532 virial="3.5154 -1.4600 5.3910 -1.4600 3.5094 -1.1298 5.3910 -1.1298 2.9554"
Ag     0.06247766     1.84423626     8.67470263    -5.83133127     3.13078168   -33.97449304
Ag     1.74739906     1.91243727     7.14272776     1.21132198    -5.19346488   -13.42959136
Ag     0.04161600     1.69540285     5.36711305    -2.73352097     5.51272520    -2.07388219
Ag     3.46207935     3.50154985     7.02376019    -0.10373480     2.87828929    -5.18576453
Ag     1.69238094     0.15546861     5.36232101     3.60828907    -4.05190669    -1.65892852
Ag     1.70975312     3.57309888     8.60044953    -4.10948746    10.55780568   -29.44009902
Ag     0.03091490     1.74891353     1.80704244    -1.01106453    -1.13131119     7.72101272
Ag     3.39682459     0.03434274     0.21216203     3.35915825    -5.16328512    32.28335968
Ag     1.70034266     3.45336671     1.79347573     1.88969115     3.73226437     6.99243771
Ag     1.77356320     1.78092739     0.17824148     5.83802624    -8.66011779    36.88835895
Ag     0.10429214     3.46011911     3.63920818    -2.58209645     2.80271119    -1.52666639
Ag     1.82163818     1.86557945     3.50530543     0.45548982    -4.41571333     3.34786550
12
Lattice="3.47900 -0.00000 -0.00000 0.02400 3.47900 -0.00000 -0.01100 0.11700 9.34100" Properties=species:S:1:pos:R:3:force:R:3 pbc="T T T" energy=-11995.991213197984 virial="3.4545 -1.5848 4.9614 -1.5848 3.4484 -1.0338 4.9614 -1.0338 2.9568"
Ag     0.06173807     1.84494760     8.66001861    -5.25476645     2.22532817   -32.27836812
Ag     1.74819770     1.91000577     7.13654322     1.24226148    -5.01581995   -13.14965939
Ag     0.03938234     1.69701764     5.36486729    -2.49172967     5.36976236    -2.04420402
Ag     3.46450984     3.50086912     7.02283590    -0.19306043     2.95578707    -5.38375032
Ag     1.69622364     0.15301841     5.36212534     3.30324732    -3.93494198    -1.74667945
Ag     1.70854805     3.57690237     8.59014340    -3.78989553     9.51978319   -27.99273434
Ag     0.03005950     1.74771444     1.81144660    -0.92042804    -1.03673484     7.69461700
Ag     3.39545487     0.03043162     0.22464845     3.41523151    -4.28891973    30.77707434
Ag     1.69903954     3.45661743     1.79484524     1.85516446     3.54606905     7.25860615
Ag     1.77549281     1.78040294     0.19285174     4.92668653    -7.76237264    34.99878503
Ag     0.10211416     3.46400861     3.63763010    -2.41096266     2.61484093    -1.44289564
Ag     1.82251550     1.86350475     3.50852650     0.31121189    -4.19091867     3.26026784
12
Lattice="3.47900 -0.00000 -0.00000 0.02400 3.47900 -0.00000 -0.01100 0.11700 9.34100" Properties=species:S:1:pos:R:3:force:R:3 pbc="T T T" energy=-11998.295257274232 virial="3.3844 -1.7303 4.3749 -1.7303 3.3789 -0.9251 4.3749 -0.9251 2.9575"
Ag     0.06052958     1.84585705     8.64246620    -4.59369903     1.31858334   -30.19953725
Ag     1.74910647     1.90712871     7.12919039     1.26168455    -4.78510821   -12.85858744
Ag     0.03692855     1.69911057     5.36244141    -2.22635015     5.20343405    -2.02545235
Ag     3.46692024     3.50045341     7.02143141    -0.29121841     3.03043127    -5.62209773
Ag     1.70035715     0.15021931     5.36177375     2.97370498    -3.80142562    -1.85003826
Ag     1.70700558     3.58155244     8.57734688    -3.33536180     8.25845356   -26.14898664
Ag     0.02912282     1.74642407     1.81653348    -0.80277699    -0.93240364     7.70728446
Ag     3.39439206     0.02614165     0.23987162     3.40472262    -3.40202684    28.89691391
Ag     1.69790378     3.46018135     1.79686204     1.80959677     3.33217449     7.56771794
Ag     1.77786060     1.77918519     0.21057366     3.87074408    -6.68218079    32.66002335
Ag     0.09972320     3.46812731     3.63592487    -2.22929864     2.41340691    -1.34418394
Ag     1.82341962     1.86105781     3.51203525     0.15321690    -3.94794501     3.17475107
12
Lattice="3.47900 -0.00000 -0.00000 0.02400 3.47900 -0.00000 -0.01100 0.11700 9.34100" Properties=species:S:1:pos:R:3:force:R:3 pbc="T T T" energy=-12000.777500518172 virial="3.3084 -1.8700 3.6836 -1.8700 3.3046 -0.8127 3.6836 -0.8127 2.9570"
Ag     0.05891730     1.84687957     8.62230745    -3.91483871     0.46477421   -27.73669450
Ag     1.75012324     1.90383917     7.12072720     1.26766640    -4.50178105   -12.57360591
Ag     0.03428843     1.70165726     5.35984699    -1.94066749     5.01708353    -2.01813208
Ag     3.46929255     3.50031017     7.01953235    -0.39900009     3.10038787    -5.90500438
Ag     1.70473523     0.14709508     5.36125886     2.62558324    -3.65418526    -1.96760621
Ag     1.70517327     3.58691600     8.56228154    -2.77228095     6.86982123   -23.95012650
Ag     0.02811921     1.74505699     1.82228248    -0.65917605    -0.81934895     7.76703243
Ag     3.39363837     0.02156969     0.25759660     3.34175682    -2.55451631    26.64013070
Ag     1.69693518     3.46402469     1.79954393     1.75382220     3.09053214     7.92237955
Ag     1.78056185     1.77737735     0.23112062     2.75072728    -5.51341095    29.93048464
Ag     0.09714534     3.47244067     3.63410828    -2.04010712     2.19974371    -1.23029293
Ag     1.82433287     1.85827092     3.51580964    -0.01696833    -3.68980692     3.09192523
12
Lattice="3.47900 -0.00000 -0.00000 0.02400 3.47900 -0.00000 -0.01100 0.11700 9.34100" Properties=species:S:1:pos:R:3:force:R:3 pbc="T T T" energy=-12003.336725313991 virial="3.2293 -1.9832 2.9445 -1.9832 3.2286 -7.0537 2.9445 -7.0537 2.9549"
Ag     0.05695678     1.84794255     8.59969082    -3.27208418    -0.30001647   -24.86687408
Ag     1.75125224     1.90015071     7.11114907     1.25797485    -4.16490476   -12.30729517
Ag     0.03147767     1.70464972     5.35707496    -1.63572433     4.81271650    -2.02249924
Ag     3.47162663     3.50044426     7.01710744    -0.51751673     3.16444599    -6.23745694
Ag     1.70934331     0.14364755     5.36056862     2.26223611    -3.49466138    -2.09894318
Ag     1.70309510     3.59288793     8.54509135    -2.12818103     5.43450150   -21.42850606
Ag     0.02705776     1.74361813     1.82871963    -0.48979802    -0.69805053     7.87959311
Ag     3.39318424     0.01677429     0.27768406     3.24324874    -1.77993006    24.00015425
Ag     1.69612441     3.46814016     1.80293117     1.68834253     2.81887238     8.32671939
Ag     1.78350610     1.77507856     0.25432114     1.63253739    -4.33503170    26.82499689
Ag     0.09438788     3.47694602     3.63218365    -1.84519671     1.97322019    -1.09990036
Ag     1.82524362     1.85515717     3.51985638    -0.19923245    -3.41776646     3.01162481
12
Lattice="3.47900 -0.00000 -0.00000 0.02400 3.47900 -0.00000 -0.01100 0.11700 9.34100" Properties=species:S:1:pos:R:3:force:R:3 pbc="T T T" energy=-12005.858193876606 virial="3.1506 -2.0559 2.2240 -2.0559 3.1546 -6.1164 2.2240 -6.1164 2.9508"
Ag     0.05470755     1.84897670     8.57489470    -2.70882135    -0.94795798   -21.64563541
Ag     1.75249153     1.89609704     7.10048921     1.23007921    -3.77546072   -12.07185260
Ag     0.02852605     1.70806661     5.35412743    -1.31387844     4.59355485    -2.03854088
Ag     3.47391006     3.50086088     7.01412970    -0.64676489     3.22069954    -6.62104048
Ag     1.71414485     0.13989423     5.35969212     1.88894025    -3.32442020    -2.24308135
Ag     1.70083067     3.59933423     8.52601868    -1.43495480     4.02553054   -18.61574006
Ag     0.02595454     1.74211961     1.83584879    -0.29576923    -0.56988007     8.04717144
Ag     3.39302080     0.01182888     0.29987832     3.12660757    -1.10331830    21.03664970
Ag     1.69546605     3.47249978     1.80705612     1.61401282     2.51547795     8.78128631
Ag     1.78659069     1.77239673     0.27987504     0.57547327    -3.21588550    23.36248760
Ag     0.09147073     3.48161920     3.63016437    -1.64739069     1.73347714    -0.95206787
Ag     1.82613485     1.85174387     3.52416460    -0.39264222    -3.13429801     2.93404787
12
Lattice="3.47900 -0.00000 -0.00000 0.02400 3.47900 -0.00000 -0.01100 0.11700 9.34100" Properties=species:S:1:pos:R:3:force:R:3 pbc="T T T" energy=-12008.236898196816 virial="3.0756 -2.0811 1.5881 -2.0811 3.0857 -5.3799 1.5881 -5.3799 2.9445"
Ag     0.05222097     1.84992400     8.54821611    -2.24848001    -1.46519901   -18.18843268
Ag     1.75383815     1.89171445     7.08877289     1.18123836    -3.33486879   -11.87851224
Ag     0.02546317     1.71188684     5.35100388    -0.97690099     4.36278615    -2.06623339
Ag     3.47613094     3.50156442     7.01056656    -0.78603696     3.26721301    -7.05460645
Ag     1.71910517     0.13585168     5.35861702     1.51094283    -3.14381739    -2.39925135
Ag     1.69844274     3.60612679     8.50532235    -0.72255760     2.69608825   -15.54733394
Ag     0.02482719     1.74057329     1.84368214    -0.07872107    -0.43682538     8.26811992
Ag     3.39313707     0.00679519     0.32390607     3.00663637    -0.53681557    17.84616532
Ag     1.69495329     3.47707508     1.81195712     1.53172798     2.17771794     9.28396143
Ag     1.78972026     1.76943312     0.30746325    -0.37901399    -2.20211007    19.65027368
Ag     0.08841246     3.48643754     3.62806423    -1.44985238     1.47934336    -0.78539802
Ag     1.82698913     1.84805763     3.52872602    -0.59663523    -2.84205532     2.85914610
12
Lattice="3.47900 -0.00000 -0.00000 0.02400 3.47900 -0.00000 -0.01100 0.11700 9.34100" Properties=species:S:1:pos:R:3:force:R:3 pbc="T T T" energy=-12010.382317747684 virial="3.0073 -2.0571 1.1017 -2.0571 3.0246 -4.8780 1.1017 -4.8780 2.9362"
Ag     0.04954177     1.85073734     8.52000097    -1.89605434    -1.84957505   -14.54127342
Ag     1.75528583     1.88704846     7.07603432     1.10910916    -2.84510941   -11.73662015
Ag     0.02232312     1.71608411     5.34770608    -0.62584880     4.12482007    -2.10510731
Ag     3.47827432     3.50255741     7.00638514    -0.93318021     3.30196942    -7.53299694
Ag     1.72418411     0.13154168     5.35733119     1.13462508    -2.95174198    -2.56627710
Ag     1.69599814     3.61313780     8.48330566    -0.01674716     1.48004976   -12.31247105
Ag     0.02369652     1.73899304     1.85222809     0.15829514    -0.30175807     8.53683344
Ag     3.39352145     0.00173011     0.34944851     2.89364647    -0.08111891    14.47437442
Ag     1.69457899     3.48182981     1.81767108     1.44235716     1.80231202     9.82863446
Ag     1.79280571     1.76628261     0.33671555    -1.20878915    -1.32047381    15.81922058
Ag     0.08523476     3.49137215     3.62590085    -1.25700606     1.20885570    -0.59880982
Ag     1.82778733     1.84412970     3.53352777    -0.81106465    -2.54433325     2.78658503
12
Lattice="3.47900 -0.00000 -0.00000 0.02400 3.47900 -0.00000 -0.01100 0.11700 9.34100" Properties=species:S:1:pos:R:3:force:R:3 pbc="T T T" energy=-12012.225821375514 virial="2.9481 -1.9848 0.8364 -1.9848 2.9733 -4.5950 0.8364 -4.5950 2.9260"
Ag     0.04669896     1.85138366     8.49054775    -1.64038841    -2.10779951   -10.73788786
Ag     1.75682947     1.88213838     7.06227469     1.01232480    -2.30625038   -11.64792800
Ag     0.01913396     1.72064084     5.34422734    -0.25806527     3.88523284    -2.15342988
Ag     3.48032968     3.50384327     7.00153972    -1.08418906     3.32391746    -8.04820334
Ag     1.72935342     0.12697728     5.35581885     0.76695122    -2.74405567    -2.74291154
Ag     1.69355734     3.62026584     8.46023659     0.66345681     0.38845724    -9.02494152
Ag     0.02258244     1.73738926     1.86151827     0.41025346    -0.16884980     8.84627272
Ag     3.39416355    -0.00333124     0.37622885     2.79161717     0.27277083    10.94510529
Ag     1.69433438     3.48673526     1.82425084     1.34568094     1.38346080    10.40713260
Ag     1.79577645     1.76302095     0.36731788    -1.90972088    -0.57596000    11.87580990
Ag     0.08195165     3.49640407     3.62368866    -1.07469997     0.91783731    -0.39097721
Ag     1.82851133     1.83998295     3.53856809    -1.03761712    -2.24514432     2.71506363
12
Lattice="3.47900 -0.00000 -0.00000 0.02400 3.47900 -0.00000 -0.01100 0.11700 9.34100" Properties=species:S:1:pos:R:3:force:R:3 pbc="T T T" energy=-12013.71964804304 virial="2.8998 -1.8652 0.8664 -1.8652 2.9330 -4.4767 0.8664 -4.4767 2.9142"
Ag     0.04371106     1.85184113     8.46015081    -1.45915235    -2.25089730    -6.94765186
Ag     1.75846277     1.87702482     7.04748119     0.89142432    -1.71559768   -11.60053803
Ag     0.01592351     1.72554243     5.34055799     0.13128772     3.65015469    -2.20840829
Ag     3.48228694     3.50542565     6.99597732    -1.23222527     3.33345321    -8.58952424
Ag     1.73458842     0.12217005     5.35406209     0.41438608    -2.51854410    -2.92859458
Ag     1.69117723     3.62742463     8.43637341     1.30375001    -0.58206003    -5.74409596
Ag     0.02150567     1.73577128     1.87159432     0.66934882    -0.04363151     9.18808554
Ag     3.39505492    -0.00836536     0.40397294     2.69945977     0.53566717     7.39267870
Ag     1.69421024     3.49176169     1.83175754     1.24089218     0.91407167    11.00849755
Ag     1.79857477     1.75970960     0.39896503    -2.49127546     0.04200596     7.91259856
Ag     0.07857427     3.50151525     3.62144275    -0.90906188     0.60374736    -0.16272573
Ag     1.82914213     1.83563776     3.54384837    -1.27811095    -1.94786417     2.64195064
12
Lattice="3.47900 -0.00000 -0.00000 0.02400 3.47900 -0.00000 -0.01100 0.11700 9.34100" Properties=species:S:1:pos:R:3:force:R:3 pbc="T T T" energy=-12014.837896902027 virial="2.8634 -1.7261 1.1529 -1.7261 2.9045 -4.5515 1.1529 -4.5515 2.9018"
Ag     0.04060654     1.85209564     8.42927218    -1.33124858    -2.29540100    -3.26947777
Ag     1.76016819     1.87178143     7.03171974     0.74474675    -1.07844972   -11.56840915
Ag     0.01273938     1.73074748     5.33670825     0.53224353     3.41299046    -2.27241479
Ag     3.48412532     3.50729832     6.98967367    -1.37295851     3.32772133    -9.14191118
Ag     1.73983658     0.11715994     5.35205196     0.07326529    -2.29120594    -3.12550234
Ag     1.68892431     3.63449889     8.41210620     1.88897454    -1.44080672    -2.50254000
Ag     0.02049354     1.73415677     1.88244448     0.93205201     0.07450538     9.54638991
Ag     3.39618314    -0.01332877     0.43225050     2.61520782     0.72014214     3.95348736
Ag     1.69419740     3.49684681     1.84021252     1.13677122     0.39998411    11.61202901
Ag     1.80113801     1.75641708     0.43117430    -2.96582601     0.54992663     4.10618412
Ag     0.07513113     3.50665705     3.61919253    -0.75468718     0.28037272     0.08087214
Ag     1.82965601     1.83113851     3.54934040    -1.52366058    -1.64637174     2.57045724
12
Lattice="3.47900 -0.00000 -0.00000 0.02400 3.47900 -0.00000 -0.01100 0.11700 9.34100" Properties=species:S:1:pos:R:3:force:R:3 pbc="T T T" energy=-12015.583090774293 virial="2.8387 -1.6320 1.4435 -1.6320 2.8867 -4.9835 1.4435 -4.9835 2.8897"
Ag     0.03739577     1.85214422     8.39822685    -1.24248368    -2.26417934     0.30509998
Ag     1.76193318     1.86646302     7.01498951     0.55958219    -0.41945269   -11.52011022
Ag     0.00961568     1.73623609     5.33267126     0.91807128     3.14641872    -2.36030036
Ag     3.48583369     3.50946045     6.98257951    -1.51321128     3.29635938    -9.69039014
Ag     1.74507000     0.11196561     5.34977097    -0.27519514    -2.08450328    -3.33869780
Ag     1.68684914     3.64141587     8.38771397     2.40907013    -2.21437823     0.62820151
Ag     0.01956871     1.73255545     1.89410283     1.21262700     0.20215858     9.90105798
Ag     3.39754024    -0.01820777     0.46076637     2.54030528     0.84787007     0.62398082
Ag     1.69428610     3.50194703     1.84966980     1.05564114    -0.13673422    12.18729898
Ag     1.80342612     1.75318700     0.46361957    -3.34282328     0.98070991     0.43755952
Ag     0.07163458     3.51180303     3.61695866    -0.59319992    -0.03176602     0.34096877
Ag     1.83003178     1.82651053     3.55503963    -1.75833151    -1.31998251     2.51380190
12
Lattice="3.47900 -0.00000 -0.00000 0.02400 3.47900 -0.00000 -0.01100 0.11700 9.34100" Properties=species:S:1:pos:R:3:force:R:3 pbc="T T T" energy=-12015.975576052377 virial="2.8253 -1.5865 1.7025 -1.5865 2.8785 -5.7019 1.7025 -5.7019 2.8790"
Ag     0.03407962     1.85199037     8.36726359    -1.17158770    -2.16850637     3.62915011
Ag     1.76374506     1.86111651     6.99725928     0.33056196     0.24284417   -11.43640189
Ag     0.00657953     1.74199620     5.32843046     1.29383670     2.85207978    -2.47062912
Ag     3.48740381     3.51191335     6.97463186    -1.64668934     3.23156613   -10.21405294
Ag     1.75026959     0.10659416     5.34719564    -0.62318279    -1.88816276    -3.56377317
Ag     1.68499292     3.64812274     8.36342094     2.86114323    -2.91940777     3.54219341
Ag     0.01875389     1.73097503     1.90662545     1.50343507     0.34574914    10.23700250
Ag     3.39912197    -0.02300239     0.48928766     2.47535480     0.93591267    -2.52735979
Ag     1.69446898     3.50702602     1.86019954     0.99785263    -0.69098114    12.71169137
Ag     1.80541145     1.75005025     0.49604666    -3.63309252     1.36011811    -3.01987149
Ag     0.06809119     3.51693709     3.61475920    -0.43216222    -0.33922167     0.62474543
Ag     1.83024976     1.82177275     3.56095345    -1.98865159    -0.97226376     2.47320262
12
Lattice="3.47900 -0.00000 -0.00000 0.02400 3.47900 -0.00000 -0.01100 0.11700 9.34100" Properties=species:S:1:pos:R:3:force:R:3 pbc="T T T" energy=-12016.056779883122 virial="2.8212 -1.5327 2.0103 -1.5327 2.8785 -6.6056 2.0103 -6.6056 2.8708"
Ag     0.03066243     1.85164282     8.33665926    -1.10199400    -2.01267892     6.64959441
Ag     1.76558447     1.85579766     6.97852640     0.06417568     0.89202998   -11.31999889
Ag     0.00366243     1.74800487     5.32397352     1.67094918     2.54327430    -2.59893386
Ag     3.48882497     3.51465242     6.96577994    -1.75500381     3.12531080   -10.69137577
Ag     1.75540768     0.10105990     5.34430459    -0.96171573    -1.68878431    -3.79775152
Ag     1.68339456     3.65456115     8.33947162     3.23928117    -3.56080345     6.21957714
Ag     0.01807437     1.72942727     1.92004928     1.78028681     0.50843121    10.53060508
Ag     3.40092323    -0.02770800     0.51755124     2.41810246     0.99543955    -5.39077841
Ag     1.69474086     3.51203759     1.87185394     0.95408620    -1.25773901    13.17173520
Ag     1.80706977     1.74703860     0.52816766    -3.84551315     1.69979386    -6.16304654
Ag     0.06451311     3.52203511     3.61261804    -0.27916756    -0.65084714     0.93645130
Ag     1.83028971     1.81695334     3.56708178    -2.21930855    -0.61544004     2.44792839
12
Lattice="3.47900 -0.00000 -0.00000 0.02400 3.47900 -0.00000 -0.01100 0.11700 9.34100" Properties=species:S:1:pos:R:3:force:R:3 pbc="T T T" energy=-12015.875898810418 virial="2.8246 -1.4238 2.4028 -1.4238 2.8855 -0.7651 2.4028 -0.7651 2.8661"
Ag     0.02715327     1.85111608     8.30670740    -1.02041808    -1.80082482     9.41533372
Ag     1.76742612     1.85056865     6.95881760    -0.23210888     1.50689300   -11.16235068
Ag     0.00090021     1.75422937     5.31929281     2.04592191     2.23186955    -2.74867022
Ag     3.49008659     3.51766556     6.95598947    -1.82229955     2.97102328   -11.09687532
Ag     1.76045005     0.09538525     5.34107966    -1.29508541    -1.47446325    -4.04447354
Ag     1.68208871     3.66066910     8.31612369     3.54102670    -4.14319879     8.67987375
Ag     0.01755524     1.72792790     1.93438860     2.02661979     0.68988900    10.74532770
Ag     3.40293714    -0.03231570     0.54527930     2.35857903     1.04070535    -7.99860442
Ag     1.69509748     3.51692722     1.88466322     0.92412821    -1.83121787    13.55455547
Ag     1.80838130     1.74418457     0.55967679    -3.99042092     2.01504957    -9.06235564
Ag     0.06091690     3.52706526     3.61056464    -0.12980471    -0.97423172     1.28232588
Ag     1.83013126     1.81208810     3.57341720    -2.44350546    -0.26150829     2.44112452
12
Lattice="3.47900 -0.00000 -0.00000 0.02400 3.47900 -0.00000 -0.01100 0.11700 9.34100" Properties=species:S:1:pos:R:3:force:R:3 pbc="T T T" energy=-12015.485584445654 virial="2.8343 -1.2863 2.8590 -1.2863 2.8978 -0.8769 2.8590 -0.8769 2.8649"
Ag     0.02356352     1.85043009     8.27768645    -0.91427980    -1.54126132    11.84179841
Ag     1.76924150     1.84548995     6.93817108    -0.55794315     2.07479568   -10.91947957
Ag    -0.00167099     1.76063451     5.31438068     2.41377231     1.92353282    -2.92301215
Ag     3.49118167     3.52093499     6.94523732    -1.84492895     2.77136596   -11.40493742
Ag     1.76536159     0.08959597     5.33750319    -1.62634354    -1.23787111    -4.30834206
Ag     1.68110304     3.66638866     8.29362114     3.77189481    -4.67053445    10.87741730
Ag     0.01721867     1.72649464     1.94964453     2.23701923     0.88261132    10.84783970
Ag     3.40515566    -0.03681660     0.57220965     2.28457888     1.08519415   -10.35851243
Ag     1.69553557     3.52163860     1.89864461     0.91778959    -2.41005885    13.84769122
Ag     1.80933248     1.74151909     0.59028184    -4.08131469     2.31819402   -11.65903920
Ag     0.05731990     3.53199328     3.60863194     0.01817523    -1.31315387     1.66695001
Ag     1.82975505     1.80721412     3.57995160    -2.65527302     0.08283863     2.45468588
12
Lattice="3.47900 -0.00000 -0.00000 0.02400 3.47900 -0.00000 -0.01100 0.11700 9.34100" Properties=species:S:1:pos:R:3:force:R:3 pbc="T T T" energy=-12014.945710211703 virial="2.8490 -1.1655 3.3319 -1.1655 2.9138 -0.9887 3.3319 -0.9887 2.8671"
Ag     0.01990125     1.84960816     8.24979747    -0.77969644    -1.24329356    13.91073069
Ag     1.77100241     1.84060955     6.91660180    -0.91359685     2.58780576   -10.54414266
Ag    -0.00401999     1.76719512     5.30921996     2.77500548     1.61637113    -3.12065053
Ag     3.49210914     3.52444366     6.93349379    -1.82313193     2.53268199   -11.59375683
Ag     1.77011531     0.08371089     5.33355099    -1.95437809    -0.97786968    -4.58824023
Ag     1.68045684     3.67167638     8.27214776     3.93712082    -5.14221874    12.76104747
Ag     0.01708281     1.72514390     1.96583059     2.40747736     1.08123750    10.82311325
Ag     3.40757260    -0.04120907     0.59814589     2.18957080     1.13754550   -12.39436320
Ag     1.69605452     3.52612266     1.91382736     0.94256107    -2.98881748    14.03424258
Ag     1.80991664     1.73906751     0.61976721    -4.12390827     2.61082124   -13.89520433
Ag     0.05373370     3.53679142     3.60685308     0.16197912    -1.66564281     2.09072321
Ag     1.82914260     1.80235999     3.58668861    -2.85339075     0.41762847     2.48766954
12
Lattice="3.47900 -0.00000 -0.00000 0.02400 3.47900 -0.00000 -0.01100 0.11700 9.34100" Properties=species:S:1:pos:R:3:force:R:3 pbc="T T T" energy=-12014.31279764405 virial="2.8673 -1.0830 3.7794 -1.0830 2.9321 -1.0945 3.7794 -1.0945 2.8725"
Ag     0.01617719     1.84867691     8.22321135    -0.61842165    -0.91287514    15.69652215
Ag     1.77267790     1.83597087     6.89413673    -1.29453431     3.03457665   -10.04133859
Ag    -0.00611600     1.77388607     5.30379150     3.13102135     1.30702834    -3.33818558
Ag     3.49287172     3.52817108     6.92073957    -1.75489850     2.26079371   -11.64803878
Ag     1.77468419     0.07775107     5.32919730    -2.27694387    -0.69577789    -4.87961428
Ag     1.68016382     3.67649327     8.25186073     4.03874035    -5.55365202    14.34381727
Ag     0.01716234     1.72389266     1.98294892     2.53150248     1.28505779    10.67584683
Ag     3.41017999    -0.04549046     0.62291895     2.07159417     1.20050431   -14.11076160
Ag     1.69665659     3.53033003     1.93023147     1.00027198    -3.55574013    14.08567479
Ag     1.81013107     1.73685448     0.64794768    -4.12048339     2.88549650   -15.84827642
Ag     0.05016969     3.54143042     3.60526486     0.29849003    -2.02749183     2.55150186
Ag     1.82827651     1.79755360     3.59363342    -3.03720437     0.74378383     2.53736898
12