6
Lattice="2.58398 0.00000 0.00000 1.36226 2.29346 0.00000 -0.09969 -0.19351 12.63447" Properties=species:S:1:pos:R:3:force:R:3 pbc="T T T" energy=-22451.15985 virial="-54.3005 8.0362 1.6022 8.0362 -41.9307 -3.7183 1.6022 -3.7183 -55.5686"
Au     2.03990462     0.24407152     4.21527027    -0.04836033     0.19362741    -0.77225909
Au     0.98641094     0.86139389     1.95336887     1.14119288     0.31793027     7.10213318
Au     2.12482584     2.04899003    10.26677792    -0.54001256     0.00051365     4.25471535
Au     2.01512491     0.03795114     8.28393194     0.80885184     1.54840059     4.22926072
Au     0.79966344     0.86244627     6.43278414    -0.25688977    -1.66111891    -6.35809174
Au     2.25037700     0.05487102     0.11427342    -1.10476557    -0.39945812    -8.45557745
6
Lattice="2.58398 0.00000 0.00000 1.36226 2.29346 0.00000 -0.09969 -0.19351 12.63447" Properties=species:S:1:pos:R:3:force:R:3 pbc="T T T" energy=-22451.26691 virial="-54.3330 8.0430 1.3344 8.0430 -41.6047 -3.8194 1.3344 -3.8194 -55.0210"
Au     2.03638045     0.24217122     4.22181811    -0.15354963     0.11033664    -0.97687505
Au     0.98356110     0.87086316     1.94805041     1.14928132     0.44913894     7.18159327
Au     2.11557937     2.04391388    10.26826135    -0.25557039     0.02920166     4.36789009
Au     2.02251044     0.03143220     8.29169463     0.52839006     1.53195425     3.60933838
Au     0.79191786     0.86530464     6.42133596    -0.18373911    -1.63827624    -5.71104187
Au     2.24390368     0.04923622     0.10964731    -1.08485197    -0.48225526    -8.47074509
6
Lattice="2.58398 0.00000 0.00000 1.36226 2.29346 0.00000 -0.09969 -0.19351 12.63447" Properties=species:S:1:pos:R:3:force:R:3 pbc="T T T" energy=-22451.3931 virial="-54.1646 8.0750 1.1032 8.0750 -41.3487 -3.7456 1.1032 -3.7456 -54.4453"
Au     2.03285053     0.24030554     4.22813018    -0.24274767     0.04373003    -1.18896081
Au     0.98095527     0.88035503     1.94417086     1.11394598     0.49910756     7.14798613
Au     2.10634658     2.03887834    10.27058749     0.03590704     0.07535705     4.45319684
Au     2.02994837     0.02525722     8.30010875     0.23386766     1.50760025     2.97394262
Au     0.78418965     0.86782345     6.40885128    -0.10906667    -1.64061497    -5.02766550
Au     2.23726303     0.04354599     0.10339893    -1.03205924    -0.48502888    -8.35845598
6
Lattice="2.58398 0.00000 0.00000 1.36226 2.29346 0.00000 -0.09969 -0.19351 12.63447" Properties=species:S:1:pos:R:3:force:R:3 pbc="T T T" energy=-22451.53108 virial="-53.8495 8.1105 0.8388 8.1104 -41.1642 -3.5297 0.8388 -3.5297 -53.8590"
Au     2.02933590     0.23848134     4.23409970    -0.31722511    -0.01089872    -1.40743558
Au     0.97861187     0.88977595     1.94174814     1.06325507     0.48361186     7.01887103
Au     2.09728405     2.03394649    10.27373734     0.33087114     0.13071239     4.51025363
Au     2.03730017     0.01948425     8.30895161    -0.05440324     1.47016204     2.34554639
Au     0.77657695     0.86997908     6.39561101    -0.04900158    -1.65121340    -4.33080560
Au     2.23053939     0.03786220     0.09563777    -0.97351553    -0.42262193    -8.13628078
6
Lattice="2.58398 0.00000 0.00000 1.36226 2.29346 0.00000 -0.09969 -0.19351 12.63447" Properties=species:S:1:pos:R:3:force:R:3 pbc="T T T" energy=-22451.67466 virial="-53.4663 8.1434 0.4981 8.1434 -40.9988 -3.2123 0.4981 -3.2123 -53.2666"
Au     2.02586201     0.23670798     4.23962421    -0.38208044    -0.06149481    -1.63068304
Au     0.97654178     0.89901686     1.94075106     1.02077706     0.44130486     6.80541925
Au     2.08854841     2.02918301    10.27766671     0.62559696     0.19183342     4.54680416
Au     2.04442812     0.01416270     8.31799077    -0.32097030     1.40927303     1.74750437
Au     0.76917571     0.87175331     6.38191869    -0.01134846    -1.64671879    -3.64762299
Au     2.22382288     0.03226175     0.08653072    -0.93266906    -0.33419200    -7.82164822
6
Lattice="2.52894 0.00000 0.00000 1.29224 2.23042 0.00000 -0.21865 -0.71662 13.09826" Properties=species:S:1:pos:R:3:force:R:3 pbc="T T T" energy=-22450.11958 virial="-63.8937 2.9540 3.1357 2.9540 -55.8743 -1.4646 3.1357 -1.4646 -55.1482"
Au     1.94852438     0.06090987     4.37404060    -0.49210493     0.19055972    -0.79645593
Au     0.92737735     0.74962165     2.00070243     1.16340052     0.36962505     7.23147960
Au     1.94164738     1.57054921    10.63773231    -0.40467644     0.14385902     4.25427887
Au     1.88471045    -0.31497308     8.59463768     0.01116620     1.31609111     3.96284533
Au     0.69630473     0.57138206     6.68089233     0.33319140    -1.97423290    -6.12739568
Au     2.19177853     0.05110417     0.11763877    -0.61122767    -0.04444954    -8.52461258
6
Lattice="2.52894 0.00000 0.00000 1.29224 2.23042 0.00000 -0.21865 -0.71662 13.09826" Properties=species:S:1:pos:R:3:force:R:3 pbc="T T T" energy=-22450.21036 virial="-63.5690 3.0579 2.5685 3.0579 -55.2489 -1.9199 2.5685 -1.9199 -54.9762"
Au     1.94495674     0.05900927     4.38058607    -0.51660893     0.04010552    -0.99074978
Au     0.92452968     0.75909599     1.99539664     1.15943624     0.60423129     7.35907519
Au     1.93241418     1.56548711    10.63921569    -0.18862877     0.18914776     4.36055013
Au     1.89201783    -0.32151478     8.60237427    -0.06455958     1.24504583     3.48537711
Au     0.68861697     0.57420975     6.66946675     0.21683849    -1.85414508    -5.62460644
Au     2.18535356     0.04550415     0.11300589    -0.60654874    -0.22436089    -8.58954942
6
Lattice="2.52894 0.00000 0.00000 1.29224 2.23042 0.00000 -0.21865 -0.71662 13.09826" Properties=species:S:1:pos:R:3:force:R:3 pbc="T T T" energy=-22450.33054 virial="-63.1666 3.1813 1.9543 3.1813 -54.5841 -2.3232 1.9543 -2.3232 -54.6781"
Au     1.94131237     0.05712937     4.38689376    -0.53578564    -0.10669103    -1.18415621
Au     0.92192771     0.76862419     1.99156385     1.14663676     0.80782472     7.36534947
Au     1.92320664     1.56049621    10.64154056     0.03741347     0.25888954     4.46962510
Au     1.89926314    -0.32776906     8.61073911    -0.14507385     1.10789727     2.98219021
Au     0.68102358     0.57665622     6.65702013     0.10078203    -1.68278163    -5.10048279
Au     2.17885363     0.03989822     0.10672702    -0.60368479    -0.38578664    -8.53197173
6
Lattice="2.52894 0.00000 0.00000 1.29224 2.23042 0.00000 -0.21865 -0.71662 13.09826" Properties=species:S:1:pos:R:3:force:R:3 pbc="T T T" energy=-22450.47488 virial="-62.6777 3.3087 1.3197 3.3087 -53.8951 -2.6352 1.3197 -2.6352 -54.2724"
Au     1.93762731     0.05526144     4.39286173    -0.55128550    -0.23750323    -1.37667820
Au     0.91959371     0.77814357     1.98922835     1.12995278     0.96844023     7.25830687
Au     1.91416651     1.55564240    10.64469317     0.26936051     0.34652312     4.57778750
Au     1.90635426    -0.33369937     8.61953773    -0.23286915     0.91856845     2.46879019
Au     0.67358184     0.57873328     6.64379929    -0.00839282    -1.47867519    -4.56737888
Au     2.17234950     0.03431486     0.09890010    -0.60665600    -0.51627337    -8.36075493
6
Lattice="2.52894 0.00000 0.00000 1.29224 2.23042 0.00000 -0.21865 -0.71662 13.09826" Properties=species:S:1:pos:R:3:force:R:3 pbc="T T T" energy=-22450.63712 virial="-62.1046 3.4471 0.6878 3.4471 -53.1995 -2.8294 0.6878 -2.8294 -53.7698"
Au     1.93394109     0.05340102     4.39839326    -0.56384158    -0.34610883    -1.56740954
Au     0.91754465     0.78757796     1.98836149     1.11483939     1.07412597     7.04874705
Au     1.90543676     1.55099424    10.64863984     0.50116885     0.44252947     4.67778985
Au     1.91319775    -0.33928279     8.62856171    -0.32584938     0.69691927     1.96063029
Au     0.66635115     0.58046539     6.63007412    -0.10875953    -1.26334578    -4.03620794
Au     2.16591407     0.02879135     0.08968206    -0.61750048    -0.60426990    -8.08379475
6
Lattice="2.89129 0.00000 0.00000 1.45216 2.53246 0.00000 0.08516 -0.34982 14.16082" Properties=species:S:1:pos:R:3:force:R:3 pbc="T T T" energy=-22454.99138 virial="27.1419 0.3273 1.1156 0.3273 27.5513 -2.1497 1.1156 -2.1497 -2.6178"
Au     2.33371595     0.22592710     4.71518902    -0.21526370     0.20121061    -0.15613984
Au     1.10934798     0.91602814     2.18977257     0.35745650    -0.15058828     1.87400928
Au     2.45910804     2.15082566    11.49040304    -0.28522753     0.15983653     1.29591051
Au     2.37170802    -0.05426802     9.29666577     0.42381661     0.55429617     1.44348899
Au     0.96278955     0.88970618     7.22519836    -0.03748203    -0.72179352    -2.10818142
Au     2.52851344     0.06103485     0.11501567    -0.24336735    -0.04294865    -2.34873982
6
Lattice="2.89129 0.00000 0.00000 1.45216 2.53246 0.00000 0.08516 -0.34982 14.16082" Properties=species:S:1:pos:R:3:force:R:3 pbc="T T T" energy=-22455.02174 virial="27.1657 0.2909 1.0165 0.2909 27.7128 -2.1776 1.0165 -2.1776 -2.4325"
Au     2.33017543     0.22402755     4.72179722    -0.22705487     0.14370956    -0.19079379
Au     1.10642136     0.92545151     2.18394191     0.37860212    -0.08390765     1.89934071
Au     2.44988654     2.14576512    11.49159658    -0.19491830     0.17667963     1.32412774
Au     2.37905583    -0.06088435     9.30415553     0.34147021     0.53197412     1.26843314
Au     0.95506547     0.89265657     7.21416655    -0.03551014    -0.69401389    -1.93024300
Au     2.52212451     0.05543498     0.11098785    -0.26266829    -0.07433676    -2.37054536
6
Lattice="2.89129 0.00000 0.00000 1.45216 2.53246 0.00000 0.08516 -0.34982 14.16082" Properties=species:S:1:pos:R:3:force:R:3 pbc="T T T" energy=-22455.05328 virial="27.4354 1.0167 1.1081 1.0167 26.9633 -2.5635 1.1081 -2.5635 -1.2481"
Au     2.32661312     0.22216816     4.72832607    -0.26324693     0.11573732    -0.24305121
Au     1.10358732     0.93479847     2.17851936     0.40978472    -0.04999758     1.94065713
Au     2.44068570     2.14077133    11.49304116    -0.09788422     0.19402331     1.36102977
Au     2.38642353    -0.06735464     9.31184534     0.24826302     0.42587024     0.95210143
Au     0.94738365     0.89545262     7.20282798     0.00796824    -0.59848970    -1.60386254
Au     2.51572496     0.04985625     0.10652267    -0.30196466    -0.09095680    -2.39885849
6
Lattice="2.89129 0.00000 0.00000 1.45216 2.53246 0.00000 0.08516 -0.34982 14.16082" Properties=species:S:1:pos:R:3:force:R:3 pbc="T T T" energy=-22455.11959 virial="17.9643 3.3516 2.7077 3.3516 38.8713 -0.7807 2.7077 -0.7807 -2.7667"
Au     2.32305599     0.22036069     4.73470437    -0.40597126     0.26003909    -0.38945566
Au     1.10087778     0.94398782     2.17355986     0.47986757    -0.25918827     2.18453622
Au     2.43161141     2.13589426    11.49472745    -0.03520602     0.33528984     0.94048133
Au     2.39372293    -0.07363977     9.31959856     0.30210647     0.47719276     1.45312051
Au     0.93982491     0.89808808     7.19135704     0.00163181    -0.83544108    -1.85524371
Au     2.50936798     0.04434811     0.10166182    -0.35757319     0.03542562    -2.40747271
6
Lattice="2.89129 0.00000 0.00000 1.45216 2.53246 0.00000 0.08516 -0.34982 14.16082" Properties=species:S:1:pos:R:3:force:R:3 pbc="T T T" energy=-22456.92061 virial="-101.0050 2.1050 -0.9884 2.1050 -107.0640 -8.4696 -0.9884 -8.4696 94.9687"
Au     2.31950890     0.21864855     4.74084847    -0.00702219     0.03577203     0.13134333
Au     1.09832858     0.95289818     2.16914657     0.00750911    -0.31156462    -0.99346962
Au     2.42275629     2.13120353    11.49655373     0.03897329    -0.00183912     2.86784224
Au     2.40089900    -0.07967603     9.32743989    -0.01995605     0.36747100     0.19428279
Au     0.93245473     0.90049626     7.17981276     0.02241317    -0.27685954    -2.09685143
Au     2.50310011     0.03898399     0.09645618     0.04172698     0.31125596    -1.17936413
6
Lattice="2.88054 0.00000 0.00000 1.49006 2.45992 0.00000 0.09767 -0.35453 14.58617" Properties=species:S:1:pos:R:3:force:R:3 pbc="T T T" energy=-22455.75493 virial="25.3882 2.3508 0.6925 2.3508 19.6871 -2.0545 0.6925 -2.0545 0.8076"
Au     2.33790965     0.19759815     4.85790304    -0.12631760    -0.01509465    -0.13519323
Au     1.12174810     0.89308637     2.25253976     0.38173148     0.11712749     1.77676365
Au     2.51031469     2.08773139    11.84647388    -0.25274279     0.28411056     1.03990418
Au     2.37673986    -0.06733089     9.57964877     0.32246655     0.33311595     1.26941376
Au     0.97357102     0.84856323     7.44015379    -0.04316792    -0.56701420    -1.72312786
Au     2.50534533     0.06351455     0.14007593    -0.28208188    -0.15232986    -2.22785883
6
Lattice="2.88054 0.00000 0.00000 1.49006 2.45992 0.00000 0.09767 -0.35453 14.58617" Properties=species:S:1:pos:R:3:force:R:3 pbc="T T T" energy=-22455.78355 virial="25.4553 2.3468 0.5558 2.3468 19.7853 -2.1175 0.5558 -2.1175 1.0106"
Au     2.33437785     0.19567741     4.86451330    -0.13200542    -0.05296985    -0.17120228
Au     1.11882385     0.90253597     2.24669957     0.40122596     0.15594115     1.80162061
Au     2.50109637     2.08268303    11.84764235    -0.19007807     0.29599993     1.04292759
Au     2.38407775    -0.07396889     9.58712148     0.27698826     0.32928505     1.13790037
Au     0.96584638     0.85152878     7.42915970    -0.05526889    -0.55623943    -1.57405424
Au     2.49895260     0.05790396     0.13605995    -0.30085411    -0.17201536    -2.23757366
6
Lattice="2.88054 0.00000 0.00000 1.49006 2.45992 0.00000 0.09767 -0.35453 14.58617" Properties=species:S:1:pos:R:3:force:R:3 pbc="T T T" energy=-22455.81152 virial="25.5416 2.3403 0.4113 2.3403 19.8651 -2.1595 0.4113 -2.1595 1.1978"
Au     2.33084272     0.19375853     4.87104809    -0.13710670    -0.08570114    -0.20833623
Au     1.11599656     0.91195595     2.24124841     0.42062830     0.18257741     1.81855280
Au     2.49189953     2.07772458    11.84900709    -0.12522981     0.31020954     1.04645488
Au     2.39142308    -0.08050037     9.59476894     0.22890516     0.31932189     1.01151768
Au     0.95816006     0.85436684     7.41792806    -0.06724295    -0.54430828    -1.43134764
Au     2.49254176     0.05229545     0.13163247    -0.31981754    -0.18207875    -2.23703686
6
Lattice="2.88054 0.00000 0.00000 1.49006 2.45992 0.00000 0.09767 -0.35453 14.58617" Properties=species:S:1:pos:R:3:force:R:3 pbc="T T T" energy=-22455.83841 virial="25.6385 2.3347 0.2575 2.3347 19.9280 -2.1811 0.2575 -2.1811 1.3686"
Au     2.32733676     0.19185329     4.87743919    -0.14179791    -0.11305541    -0.24659291
Au     1.11329569     0.92126267     2.23623684     0.43977079     0.19765376     1.82772538
Au     2.48282358     2.07290473    11.85055371    -0.05878038     0.32595373     1.05048358
Au     2.39869691    -0.08686664     9.60249227     0.17878076     0.30359849     0.89013350
Au     0.95058204     0.85705427     7.40659554    -0.07864197    -0.53120438    -1.29555590
Au     2.48616998     0.04674010     0.12684003    -0.33940993    -0.18287041    -2.22674176
6
Lattice="2.88054 0.00000 0.00000 1.49006 2.45992 0.00000 0.09767 -0.35453 14.58617" Properties=species:S:1:pos:R:3:force:R:3 pbc="T T T" energy=-22455.86377 virial="25.7399 2.3279 0.0950 2.3279 19.9755 -2.1796 0.0950 -2.1796 1.5162"
Au     2.32389048     0.18997352     4.88362375    -0.14680331    -0.13586496    -0.28481209
Au     1.11074703     0.93037636     2.23170348     0.45948371     0.20290599     1.82957728
Au     2.47396179     2.06826773    11.85226517     0.00814617     0.34213633     1.05527819
Au     2.40582459    -0.09301596     9.61019591     0.12797213     0.28340161     0.77591510
Au     0.94317711     0.85957213     7.39529392    -0.08974475    -0.51706760    -1.16884001
Au     2.47989086     0.04128741     0.12173579    -0.35955839    -0.17572572    -2.20780215
6
Lattice="3.18871 0.00000 0.00000 1.53118 2.66001 0.00000 0.43297 -0.03091 15.70120" Properties=species:S:1:pos:R:3:force:R:3 pbc="T T T" energy=-22448.45432 virial="48.9349 -1.2188 0.2215 -1.2188 43.5008 -1.0025 0.2215 -1.0025 14.8947"
Au     2.67799147     0.34151844     5.23066195    -0.14015678     0.11756004    -0.01024793
Au     1.23932422     1.01673684     2.41189199     0.10716224    -0.05911227     0.35628966
Au     2.93663128     2.53712118    12.75056386    -0.08858561     0.13999800     0.02215804
Au     2.84142999     0.17352531    10.30218746     0.14204024     0.13959363     0.43746558
Au     1.20551847     1.09884282     7.99401461     0.00707342    -0.29115582    -0.35831552
Au     2.78309501     0.06881776     0.13454468    -0.02754341    -0.04678460    -0.44737257
6
Lattice="3.18871 0.00000 0.00000 1.53118 2.66001 0.00000 0.43297 -0.03091 15.70120" Properties=species:S:1:pos:R:3:force:R:3 pbc="T T T" energy=-22448.45973 virial="48.9709 -1.2357 0.2025 -1.2357 43.5448 -0.9971 0.2025 -0.9971 14.9657"
Au     2.67445831     0.33961069     5.23728445    -0.13577003     0.10284155    -0.00675042
Au     1.23637307     1.02616917     2.40591264     0.11512457    -0.04375456     0.35467245
Au     2.92742905     2.53205870    12.75163261    -0.07138054     0.14306989     0.02002811
Au     2.84875019     0.16686835    10.30957866     0.12318721     0.13448470     0.39990021
Au     1.19779875     1.10183541     7.98315423     0.00588520    -0.28536587    -0.31598639
Au     2.77672722     0.06321751     0.13070314    -0.03710774    -0.05123621    -0.45210204
6
Lattice="3.18871 0.00000 0.00000 1.53118 2.66001 0.00000 0.43297 -0.03091 15.70120" Properties=species:S:1:pos:R:3:force:R:3 pbc="T T T" energy=-22450.85169 virial="-61.8377 1.2891 2.0740 1.2891 -68.6693 -1.6464 2.0740 -1.6464 110.4960"
Au     2.67092056     0.33773487     5.24386453    -0.15556057    -0.20495236     0.84355733
Au     1.23346272     1.03553444     2.40003966     0.14584483    -0.08624781     1.27027085
Au     2.91826996     2.52705558    12.75269865    -0.04665327    -0.01326775     1.00636491
Au     2.85604904     0.16027896    10.31700212     0.11849639     0.13198976     0.23912357
Au     1.19012808     1.10475368     7.97229951    -0.10248132     0.10821414    -1.66606846
Au     2.77039169     0.05764199     0.12679712    -0.02400408     0.07638649    -1.42991872
6
Lattice="3.18871 0.00000 0.00000 1.53118 2.66001 0.00000 0.43297 -0.03091 15.70120" Properties=species:S:1:pos:R:3:force:R:3 pbc="T T T" energy=-22456.99533 virial="-73.2281 -8.6151 -2.0425 -8.6151 -51.6741 -6.8793 -2.0425 -6.8793 122.3060"
Au     2.66740681     0.33584796     5.25050772    -0.04496918     0.12425680    -0.12519862
Au     1.23062537     1.04473928     2.39450375    -0.06867799    -0.17996639     1.03289273
Au     2.90924229     2.52212661    12.75394402    -0.03510829    -0.01540572     0.94722805
Au     2.86325898     0.15381630    10.32435821     0.11409892     0.00267482    -0.53940223
Au     1.18255513     1.10764823     7.96128733    -0.11763900     0.07500628     1.38008461
Au     2.76414868     0.05216685     0.12267298     0.10270386     0.13755314    -1.48523304
6
Lattice="3.18871 0.00000 0.00000 1.53118 2.66001 0.00000 0.43297 -0.03091 15.70120" Properties=species:S:1:pos:R:3:force:R:3 pbc="T T T" energy=-22462.52381 virial="-236.6550 8.1495 -21.2197 8.1495 -227.5340 3.9596 -21.2197 3.9596 191.0380"
Au     2.66396847     0.33403028     5.25696764    -0.03685515     0.01656571    -0.40700360
Au     1.22784264     1.05368895     2.38930033    -0.03008806    -0.10034532     1.89984190
Au     2.90042392     2.51731265    12.75534295    -0.01850454     0.00821009     0.94452611
Au     2.87031843     0.14750886    10.33143379    -0.07208257     0.06182430     0.22887195
Au     1.17514069     1.11048802     7.95080593    -0.03545818     0.07603008    -0.06507211
Au     2.75807498     0.04684940     0.11836003     0.05150942     0.10898445    -1.85961293
6
Lattice="3.14856 0.00000 0.00000 1.64881 2.74019 0.00000 -0.31983 -0.81226 16.01545" Properties=species:S:1:pos:R:3:force:R:3 pbc="T T T" energy=-22447.37933 virial="48.2249 1.0636 0.4337 1.0636 46.8859 -0.6283 0.4337 -0.6283 16.2588"
Au     2.41171293     0.08854857     5.34184368    -0.12914277     0.10606515    -0.00927677
Au     1.16699316     0.93149027     2.46722624     0.19063723    -0.03608472     0.17766994
Au     2.41628190     1.98302753    12.99646531    -0.04267155     0.12192225    -0.01863041
Au     2.32259325    -0.34698941    10.50316277    -0.02937080     0.10223990     0.38423398
Au     0.86288304     0.73791468     8.16881125     0.07754439    -0.31919080    -0.27122776
Au     2.73924044     0.06492268     0.13216661    -0.06696691     0.02508187    -0.26268244
6
Lattice="3.14856 0.00000 0.00000 1.64881 2.74019 0.00000 -0.31983 -0.81226 16.01545" Properties=species:S:1:pos:R:3:force:R:3 pbc="T T T" energy=-22447.38185 virial="48.2581 1.0666 0.3907 1.0666 46.9010 -0.6719 0.3907 -0.6719 16.3248"
Au     2.40818085     0.08663970     5.34846627    -0.12943789     0.09159313    -0.00187708
Au     1.16405019     0.94092485     2.46122938     0.19478258    -0.01826055     0.17844379
Au     2.40708416     1.97796327    12.99753007    -0.02492566     0.13048733    -0.01648112
Au     2.32989666    -0.35365003    10.51054875    -0.04181019     0.09190606     0.35836164
Au     0.85517022     0.74090452     8.15795940     0.07449183    -0.31117973    -0.24670579
Au     2.73286880     0.05932947     0.12834316    -0.07311622     0.01539767    -0.27189480
6
Lattice="3.14856 0.00000 0.00000 1.64881 2.74019 0.00000 -0.31983 -0.81226 16.01545" Properties=species:S:1:pos:R:3:force:R:3 pbc="T T T" energy=-22447.67275 virial="38.0531 5.2062 -1.3369 5.2062 24.5287 2.1508 -1.3369 2.1508 25.4649"
Au     2.40464533     0.08476052     5.35504754    -0.14529320    -0.18508039    -0.15268818
Au     1.16116347     0.95029752     2.45530447     0.24856805     0.02571560     0.84180988
Au     2.39793844     1.97295583    12.99858503    -0.00157780     0.22514270    -0.25369808
Au     2.33714673    -0.36025150    10.51795906     0.01213606     0.13397138     0.63068455
Au     0.84751966     0.74381508     8.14712647    -0.02864858    -0.27507462    -0.16913819
Au     2.72652227     0.05377386     0.12449026    -0.12235406     0.10764472    -0.91950710
6
Lattice="3.14856 0.00000 0.00000 1.64881 2.74019 0.00000 -0.31983 -0.81226 16.01545" Properties=species:S:1:pos:R:3:force:R:3 pbc="T T T" energy=-22448.16392 virial="19.8023 6.4973 -6.3289 6.4973 15.5641 -2.5641 -6.3289 -2.5641 43.5637"
Au     2.40113531     0.08287392     5.36149906    -0.06161145     0.04779941    -0.09992564
Au     1.15836897     0.95953271     2.44963332    -0.06679292    -0.22871714     0.32706967
Au     2.38893144     1.96806830    12.99957462    -0.01292956     0.22332322     0.08378735
Au     2.34428895    -0.36672657    10.52537936    -0.36110128    -0.22037321     0.05751777
Au     0.83997983     0.74662790     8.13642534     0.41080771    -0.03872084     0.21790263
Au     2.72024844     0.04832364     0.12051712     0.07952008     0.20596967    -0.47788315
6
Lattice="3.14856 0.00000 0.00000 1.64881 2.74019 0.00000 -0.31983 -0.81226 16.01545" Properties=species:S:1:pos:R:3:force:R:3 pbc="T T T" energy=-22608.59158 virial="-2170.5500 22.1299 13.1345 22.1299 -2171.1600 2.9627 13.1345 2.9627 2574.9800"
Au     2.39769618     0.08104109     5.36777900    -0.08232775     0.48410663     2.11834175
Au     1.15562748     0.96850568     2.44415933    -0.28616161     0.14017817    -2.02557988
Au     2.38013449     1.96333934    13.00055707     0.08446652     0.04473499    -0.96704961
Au     2.35119271    -0.37309151    10.53263569     0.22377133     0.50610932     4.33889457
Au     0.83269747     0.74936685     8.12601893     0.20782663    -0.01276897    11.79825047
Au     2.71413805     0.04304192     0.11654520     0.59802924     0.44803499     4.53607413
