ITEM: TIMESTEP
210
ITEM: NUMBER OF ATOMS
64
ITEM: BOX BOUNDS xy xz yz pp pp pp
-2.1577784230499999e-01 1.1187578062354000e+01 -2.1577784230499999e-01
-5.8671844649000000e-02 1.1223192087773000e+01 5.3801181254999997e-02
0.0000000000000000e+00 1.0992593606461000e+01 -5.8671844649000000e-02
ITEM: ATOMS id type x y z fx fy fz
1 1 1.43947 4.00685 1.18267 -0.81204 -0.793249 0.720993
2 1 1.23828 9.57184 6.7367 -1.14481 -0.85184 0.409212
3 1 6.82432 4.04481 1.20629 1.52411 -0.713268 1.69612
4 1 6.93294 4.01493 6.78148 -0.184449 0.143995 -0.709464
5 1 6.73102 9.68424 1.2713 0.492976 1.02484 0.112127
6 1 6.75657 9.67382 6.73536 0.0933605 -0.498502 -0.753665
7 1 10.8819 11.0568 2.63086 0.0702758 -1.52229 -0.508429
8 1 10.8472 10.9275 8.09536 1.03428 -0.163154 0.361169
9 1 11.0751 5.26191 2.53616 0.2979 1.02641 0.266422
10 1 11.0891 5.3499 8.08868 0.0212295 0.831243 0.183785
11 1 5.37376 11.0952 2.74041 0.417309 0.310849 -1.35195
12 1 5.40349 10.9816 8.13558 -0.228815 1.46238 -1.15441
13 1 5.26294 5.44136 2.54828 1.11736 0.397232 -0.0940516
14 1 1.34726 4.00354 6.74222 0.11989 -0.527981 -0.158389
15 1 1.16142 9.65287 1.14504 -0.537404 -0.295888 1.07457
16 1 5.41095 5.4175 8.11442 0.452737 0.173521 -0.519829
17 1 1.16478 6.7912 4.01552 1.13977 -0.200767 -1.15976
18 1 1.38898 6.7969 9.52191 -1.20905 -1.16933 -0.390491
19 1 7.07735 1.24377 4.01784 -0.725627 -0.745205 0.185589
20 1 6.98623 1.23975 9.41766 0.0786357 -0.178988 0.418623
21 1 6.7417 6.88218 3.92674 1.00911 -1.75026 -0.061954
22 1 6.78148 6.81676 9.49843 0.265526 -0.0360972 0.442246
23 1 11.2229 2.57614 10.8535 -0.186179 -0.906097 -0.357627
24 1 11.1883 2.5166 5.3316 -0.196266 -0.241639 0.489185
25 1 11.0261 8.0796 10.8381 -0.211388 0.876413 -0.483231
26 1 10.9484 8.12819 5.30317 -0.102068 1.11806 0.762409
27 1 5.60422 2.57252 10.8567 -0.739534 0.205045 -0.609423
28 1 5.61249 2.51073 5.35169 -0.560769 1.90571 -0.514951
29 1 1.38635 1.06063 3.93334 0.948382 0.309368 1.57012
30 1 1.48878 1.08089 9.43627 -0.847854 0.573952 -0.00284392
31 1 5.42852 8.30105 10.9797 -0.347305 -0.707336 -1.7977
32 1 5.42996 8.22492 5.25238 -0.999015 0.760589 0.729093
33 1 4.04298 3.99998 3.98453 0.474705 -0.773519 0.583071
34 1 4.05149 9.71222 9.45893 -0.542716 -1.97275 0.309191
35 1 9.82562 3.85733 3.93293 -0.707842 0.711978 0.5961
36 1 9.81448 3.91822 9.45028 -0.743161 0.2715 0.508918
37 1 9.51737 9.62288 4.07755 0.557937 -0.620636 -1.25502
38 1 9.48438 9.45643 9.43817 0.657471 0.823462 0.930625
39 1 2.59898 10.9048 10.8326 0.890487 1.59925 0.473506
40 1 2.61988 10.9144 5.52334 -0.369364 0.600708 -2.88722
41 1 2.7361 5.26562 10.7967 -0.100608 1.70987 0.103208
42 1 2.64145 5.45995 5.39393 0.118633 -0.496904 -0.677531
43 1 8.16614 11.0678 10.8102 0.042304 -0.895941 0.0944186
44 1 8.23173 11.0296 5.34322 -1.24606 -0.211206 0.453466
45 1 8.30186 5.33379 10.8208 0.0897842 0.383283 -0.227939
46 1 4.09415 4.01523 9.47496 1.15314 -1.19302 -0.213118
47 1 3.9523 9.65779 3.80958 0.402548 -0.106466 2.67848
48 1 8.32019 5.33626 5.22849 -0.65372 0.897644 0.335946
49 1 3.89714 6.92461 1.11766 0.59284 -0.646255 1.12905
50 1 3.99551 6.85632 6.70989 0.895787 -0.1515 -0.0627606
51 1 9.76878 1.16425 1.25953 -0.0891718 0.54006 -0.832109
52 1 9.72762 1.08984 6.75051 0.738719 1.22313 -0.138653
53 1 9.71407 6.76865 1.22891 -1.90147 0.281241 0.883331
54 1 9.63348 6.83034 6.76291 -0.534251 -0.937615 -0.388511
55 1 2.70679 2.48306 2.56171 0.0984421 1.15001 0.708408
56 1 2.81564 2.58499 8.06036 -0.220624 -0.279686 -0.0574513
57 1 2.58838 8.31391 2.60247 -1.24507 -1.27595 -0.545244
58 1 2.60443 8.13574 8.11249 0.984731 1.47054 0.0896247
59 1 8.40471 2.51958 2.64593 -1.44427 1.82313 -1.91602
60 1 8.39032 2.61011 8.05098 -0.117728 -0.19884 0.160496
61 1 4.19365 1.27538 1.29183 -0.0867437 -1.40165 -1.07614
62 1 4.18574 1.18841 6.61021 0.63235 -0.281926 1.83412
63 1 8.11934 8.28986 2.57906 1.43946 -1.12134 -0.417068
64 1 8.09567 8.21961 8.04545 0.183175 -0.738331 0.0293168
