ITEM: TIMESTEP
30
ITEM: NUMBER OF ATOMS
64
ITEM: BOX BOUNDS xy xz yz pp pp pp
-2.1577784230499999e-01 1.1187578062354000e+01 -2.1577784230499999e-01
-5.8671844649000000e-02 1.1223192087773000e+01 5.3801181254999997e-02
0.0000000000000000e+00 1.0992593606461000e+01 -5.8671844649000000e-02
ITEM: ATOMS id type x y z fx fy fz
1 1 1.30206 4.05201 1.18159 0.0546799 -1.02941 1.09548
2 1 1.33302 9.60937 6.71357 -1.28819 -0.889249 0.76285
3 1 6.82396 3.83479 1.2333 -0.328608 1.43789 0.883763
4 1 6.89652 4.01756 6.67562 -0.381852 -0.61421 0.211157
5 1 6.87016 9.54808 1.22462 -0.386659 0.713493 0.208553
6 1 6.83889 9.47869 6.70813 0.503225 0.756455 -0.806598
7 1 10.9053 11.162 2.5014 0.263658 -1.12526 0.15036
8 1 10.8969 11.0171 8.00945 0.670785 -0.371778 0.469472
9 1 11.1509 5.47321 2.60089 -0.376094 -0.402688 0.270105
10 1 11.0138 5.44039 8.12454 0.487989 0.413112 0.599846
11 1 5.38022 11.0317 2.58019 0.393875 -0.390426 -0.435829
12 1 5.46511 10.961 7.88999 -0.599972 -0.638828 1.81778
13 1 5.3715 5.32709 2.66355 1.3285 0.218266 -0.642294
14 1 1.24811 4.0423 6.84163 0.485334 0.195752 -1.11413
15 1 1.24096 9.68746 1.13431 -0.641915 0.154495 0.882688
16 1 5.49477 5.31116 8.18279 -0.330514 -0.120732 -0.721743
17 1 1.3328 6.91017 4.01596 -0.0757451 -0.278804 -0.315401
18 1 1.42698 6.81538 9.52978 -1.28836 -0.355693 -0.437427
19 1 6.9355 1.23724 3.93288 -0.0783281 -0.761315 0.649322
20 1 6.96008 1.11718 9.40343 -0.782531 0.212003 0.428044
21 1 6.88425 6.80464 3.96237 0.413327 -0.972395 -0.675565
22 1 6.83414 6.652 9.56313 0.227355 0.891614 -0.389266
23 1 11.1391 2.6273 10.8026 -0.657644 -0.387599 -0.219562
24 1 11.0653 2.70532 5.37489 -0.448692 -0.816824 0.268448
25 1 11.0554 8.20719 10.871 -0.266187 0.395079 -1.37789
26 1 10.9896 8.23918 5.32095 0.058206 0.371296 0.323696
27 1 5.52164 2.44561 10.9092 -0.766621 0.301342 -1.50355
28 1 5.46424 2.51792 5.28621 -0.0542307 0.838675 0.519335
29 1 1.25044 1.17923 4.04296 0.807808 0.649004 -0.186906
30 1 1.40527 1.20437 9.3801 -0.539012 -0.584055 0.688081
31 1 5.49046 8.06668 10.9387 -0.0549317 0.520208 -0.476697
32 1 5.55461 8.11336 5.25428 -1.4637 1.06821 0.476229
33 1 3.98891 4.04897 3.99915 0.128447 -1.16045 0.478706
34 1 4.13487 9.55302 9.5156 0.348652 -0.00815541 -0.801424
35 1 9.69684 4.02046 3.91962 -0.0474937 0.643303 0.517298
36 1 9.64162 4.02083 9.42861 -0.285149 -0.124042 1.01805
37 1 9.58613 9.71645 3.92643 0.58213 -0.27994 0.331884
38 1 9.53386 9.58495 9.37438 1.06554 0.163117 1.41599
39 1 2.60529 10.9167 10.7181 0.44637 1.14398 0.236877
40 1 2.5162 11.0002 5.36388 0.85147 -0.322795 -1.59411
41 1 2.66733 5.28252 10.8275 1.22205 1.16984 0.277975
42 1 2.66914 5.45238 5.41454 -0.0132056 -0.0280238 0.0948213
43 1 8.14902 11.0434 10.7788 0.306026 -0.913145 0.216512
44 1 8.18854 11.055 5.2927 -0.576645 -0.304798 0.667294
45 1 8.14585 5.32734 10.9623 1.95823 -0.0403498 -0.240539
46 1 4.00415 3.88281 9.45969 1.55344 -0.127351 0.580667
47 1 4.04865 9.61506 3.89505 -0.131932 0.0666507 1.41696
48 1 8.30554 5.4568 5.37224 -0.131512 -0.588143 -0.472242
49 1 4.05438 6.78962 1.30907 -0.686461 -0.45067 -0.594114
50 1 4.19023 6.78923 6.74498 -0.416975 -0.285946 0.0124532
51 1 9.67506 1.24086 1.19366 0.0719731 0.488682 -0.33541
52 1 9.67098 1.21384 6.83801 0.300306 0.476014 -1.56347
53 1 9.79123 6.80151 1.20386 -2.06315 -0.043562 0.487529
54 1 9.65047 6.80928 6.76593 0.00161829 0.445633 -0.259025
55 1 2.70923 2.53101 2.60842 -0.783176 0.907853 0.102976
56 1 2.6906 2.58734 8.01384 0.70353 -0.653147 -0.198743
57 1 2.63952 8.32837 2.53113 -0.0776043 -0.769045 0.257539
58 1 2.7462 8.14471 8.11506 0.201943 0.577388 -0.338362
59 1 8.28092 2.6017 2.64571 0.5058 0.167616 -0.69442
60 1 8.23937 2.58645 8.12242 0.315098 0.543672 -0.397241
61 1 4.08654 1.16686 1.28445 0.0403739 -0.563153 -0.717329
62 1 4.13422 1.01745 6.70401 0.12427 1.82475 0.00548911
63 1 8.30979 8.2307 2.66111 -0.0510278 -0.545832 -1.0999
64 1 8.19984 8.16082 8.14729 -0.347894 -0.807557 -0.215037
