ITEM: TIMESTEP
430
ITEM: NUMBER OF ATOMS
64
ITEM: BOX BOUNDS xy xz yz pp pp pp
-2.1577784230499999e-01 1.1187578062354000e+01 -2.1577784230499999e-01
-5.8671844649000000e-02 1.1223192087773000e+01 5.3801181254999997e-02
0.0000000000000000e+00 1.0992593606461000e+01 -5.8671844649000000e-02
ITEM: ATOMS id type x y z fx fy fz
1 1 1.3658 3.88196 1.13299 0.989734 1.23745 1.44304
2 1 1.21144 9.40288 6.75411 -0.720591 1.18433 -0.703187
3 1 6.93735 4.05442 1.25533 -1.11335 -1.09059 0.358566
4 1 6.93519 4.07572 6.70648 -0.0868231 -0.308727 -0.268597
5 1 6.80339 9.64478 1.25085 0.00209307 1.14164 0.776996
6 1 6.79074 9.58696 6.64578 0.00499952 0.394898 0.566865
7 1 10.8809 11.0525 2.59477 0.243906 -0.788199 -0.0559592
8 1 10.8778 10.8695 8.10603 0.842995 0.559927 0.156963
9 1 11.1145 5.32285 2.46658 -0.177055 0.0247945 0.866151
10 1 10.9894 5.38104 8.19701 0.6403 -0.0909726 -0.961067
11 1 5.47879 11.2465 2.64013 -0.864497 -2.25072 -0.205505
12 1 5.36961 11.0126 7.97982 1.46522 -0.364545 1.44849
13 1 5.29024 5.39449 2.55914 1.07359 0.391849 -0.034575
14 1 1.2764 3.94454 6.72777 0.582591 0.701047 0.458845
15 1 1.09757 9.60121 1.0944 0.700413 0.720124 0.909635
16 1 5.46083 5.38702 8.08323 0.39681 0.385939 -0.113895
17 1 1.23718 6.74772 4.00085 0.490415 -0.209614 -0.807831
18 1 1.2999 6.79122 9.49899 0.183649 -0.522712 -0.387683
19 1 7.03981 1.23358 4.0647 0.355232 0.129606 -0.522894
20 1 7.01406 1.23431 9.46273 -0.711027 -0.216877 -0.859719
21 1 6.84834 6.77336 3.91362 -0.873042 0.825941 -0.0397432
22 1 6.71926 6.81075 9.53807 0.381051 -0.757768 1.18527
23 1 11.2652 2.60985 10.8164 -1.25128 -1.70518 -0.676393
24 1 11.0659 2.54302 5.35091 0.442996 -0.211286 0.779237
25 1 10.9571 8.14051 10.7543 -0.587647 -0.466926 0.822602
26 1 10.9313 8.12557 5.1883 -0.161191 0.279029 1.75683
27 1 5.51329 2.52421 10.8287 1.32579 1.12066 0.0314026
28 1 5.6371 2.64957 5.22797 -0.658756 -0.0770209 1.40251
29 1 1.32361 1.11593 4.10134 0.589707 0.184412 -0.886921
30 1 1.46767 1.17302 9.43152 0.143953 -0.633613 -0.423671
31 1 5.38966 8.29537 11.0473 -0.0621526 -1.27635 -1.48525
32 1 5.39077 8.27774 5.32623 0.278726 -0.607416 -1.16579
33 1 4.06708 3.96872 4.03207 0.284885 0.386757 -0.216001
34 1 4.1603 9.58083 9.46109 -0.970386 0.151944 -0.213086
35 1 9.80378 3.91605 3.97287 -0.695815 1.03688 -0.236321
36 1 9.74074 3.89677 9.55079 -0.422862 0.453945 -0.51365
37 1 9.4531 9.60802 4.03213 1.47851 0.354273 -0.704871
38 1 9.47288 9.55353 9.51923 -0.174693 -0.141826 -0.489289
39 1 2.73247 10.958 10.7847 -0.862246 0.287937 0.406464
40 1 2.55022 10.8996 5.36535 -0.10829 0.711846 0.61067
41 1 2.75859 5.31814 10.801 -0.743994 0.312054 -0.124867
42 1 2.73072 5.40267 5.38336 -0.616311 0.0885788 0.121276
43 1 8.11326 11.0551 10.8261 0.681702 -0.419524 0.109364
44 1 8.19315 11.0361 5.35211 -0.296855 -0.113797 0.699678
45 1 8.29945 5.32223 10.8578 -0.807542 0.539033 -0.888489
46 1 4.20895 4.01089 9.50002 -0.337676 -0.543475 -0.382569
47 1 3.94113 9.71439 3.94083 0.919215 -0.368776 -0.588343
48 1 8.26372 5.40729 5.23081 0.614816 -0.181827 0.685253
49 1 3.856 6.85164 1.17984 0.960072 0.222299 1.00082
50 1 4.13056 6.86637 6.72777 -0.70733 -0.637217 -0.0701305
51 1 9.80286 1.19972 1.16481 -0.523095 0.38658 0.352204
52 1 9.73402 1.16947 6.83263 0.328518 -0.363145 -0.862611
53 1 9.54953 6.68763 1.26287 1.05641 1.42218 -0.372567
54 1 9.59423 6.78632 6.78024 -0.62101 0.210141 -0.247999
55 1 2.73331 2.59422 2.69893 -0.247988 -0.828963 -0.781669
56 1 2.88604 2.64187 8.05172 -0.336974 -1.04892 -0.420467
57 1 2.51451 8.27875 2.58975 0.0254643 -0.3081 -0.124962
58 1 2.66486 8.19196 8.07862 0.534878 -0.410364 0.750876
59 1 8.39003 2.5754 2.65816 -0.0143792 0.303165 -1.10682
60 1 8.36843 2.65003 7.99113 -0.452039 -0.131829 1.19361
61 1 4.2472 1.24122 1.24683 -1.27356 -0.174415 0.407755
62 1 4.32307 1.09002 6.64805 -1.68998 1.74276 -0.352886
63 1 8.26803 8.28696 2.56759 -0.992643 -1.0971 -0.123164
64 1 7.9603 8.14885 8.15596 2.14445 0.455776 -0.881927
