ITEM: TIMESTEP
580
ITEM: NUMBER OF ATOMS
64
ITEM: BOX BOUNDS xy xz yz pp pp pp
-2.1577784230499999e-01 1.1187578062354000e+01 -2.1577784230499999e-01
-5.8671844649000000e-02 1.1223192087773000e+01 5.3801181254999997e-02
0.0000000000000000e+00 1.0992593606461000e+01 -5.8671844649000000e-02
ITEM: ATOMS id type x y z fx fy fz
1 1 1.18756 4.1375 1.39245 0.723752 -0.342058 -0.928533
2 1 1.21028 9.6073 6.63553 0.321287 0.857976 -0.101993
3 1 6.91546 4.03504 1.21529 -0.384959 -0.811048 -0.617242
4 1 6.89451 3.98625 6.72991 -0.163925 -0.546016 -0.0911421
5 1 6.91309 9.43124 1.18234 -1.73467 0.340183 -0.017216
6 1 6.91068 9.56476 6.88705 -1.39545 -0.0480798 -1.98259
7 1 11.0284 10.9624 2.48415 -1.55716 0.907715 1.54489
8 1 10.9789 11.0441 8.02737 0.537594 0.596674 -0.114147
9 1 10.9673 5.50424 2.73874 -0.306936 0.03396 -0.879742
10 1 11.0207 5.38816 8.02392 0.696803 -0.606737 0.863826
11 1 5.30805 10.907 2.32885 0.640989 0.194855 2.04989
12 1 5.30743 10.9944 8.06559 0.28671 -0.205777 0.401638
13 1 5.74259 5.46883 2.6267 -2.49426 -0.711312 0.188346
14 1 1.34604 3.95095 6.69259 -0.503497 0.0268455 0.280762
15 1 1.19752 9.66759 1.19209 1.56305 -1.44152 0.0603536
16 1 5.48211 5.24176 8.15904 0.239178 0.728165 -0.335699
17 1 1.35148 6.78958 4.08599 0.45514 0.0696265 -0.936659
18 1 1.26113 6.81838 9.42448 0.479091 -0.648252 0.575847
19 1 6.76078 1.20454 3.91625 0.295036 -0.479411 -0.450983
20 1 6.99325 1.19877 9.39386 0.204731 -2.26088 1.46824
21 1 6.9503 6.77615 4.10825 -0.783743 0.410854 0.39876
22 1 6.89696 6.70038 9.37896 -0.190495 0.355702 0.361594
23 1 11.1706 2.59143 10.9724 -2.31727 0.774544 -0.904777
24 1 10.9973 2.64875 5.24784 0.514508 -0.39645 0.35991
25 1 11.0256 8.15334 10.9066 -0.131212 0.537458 -1.11689
26 1 11.0891 8.25146 5.20984 -1.30687 0.0128771 0.835416
27 1 5.59308 2.43783 10.7975 -0.327082 1.43033 0.468953
28 1 5.48073 2.5902 5.35081 -0.409662 0.328664 0.0995284
29 1 1.38594 1.23356 3.92967 -0.336542 0.372197 -0.461825
30 1 1.3346 1.25489 9.55948 0.604631 -0.701627 -0.768578
31 1 5.4469 8.03583 10.7783 0.399338 0.723083 -0.171045
32 1 5.37006 8.19014 5.34865 2.21756 -0.497143 1.80305
33 1 4.12052 4.10273 3.97982 0.795179 -0.466409 -0.351538
34 1 3.95341 9.52473 9.50737 0.63697 -0.132653 -0.913309
35 1 9.5039 4.04925 3.92031 1.14453 -0.0228757 1.04816
36 1 9.57051 3.97604 9.42409 1.86772 -0.78489 1.08543
37 1 9.4929 9.6155 3.90608 1.16719 0.710649 0.645859
38 1 9.74791 9.68796 9.37325 -1.11792 -1.88681 1.29164
39 1 2.63928 10.9834 10.7641 -1.20484 -0.0322182 0.0537723
40 1 2.55911 11.0599 5.19627 0.612488 -0.027883 1.42689
41 1 2.69799 5.36957 10.9247 -0.575399 0.335246 -0.686511
42 1 2.76452 5.35465 5.44732 -0.112222 0.650079 -0.337616
43 1 8.19557 10.806 10.8518 -0.0853748 2.27387 -1.42872
44 1 8.02939 11.0883 5.26049 0.946798 -0.398248 0.984987
45 1 8.22921 5.40445 10.7934 0.502399 -0.649432 0.129533
46 1 4.09196 3.971 9.54024 0.162243 -0.656208 0.241734
47 1 4.12886 9.58571 4.10877 -1.1031 1.03858 -2.24512
48 1 8.3193 5.40196 5.4835 -0.324065 -0.0120463 -0.606075
49 1 4.15755 6.71643 1.22843 -0.279249 0.536941 0.6005
50 1 4.1679 6.75568 6.86183 -0.786741 0.00377909 -0.855545
51 1 9.66477 1.12973 1.34325 0.128118 0.602413 -0.876815
52 1 9.73766 1.23012 6.78299 -0.213851 -0.558749 -1.76477
53 1 9.52284 6.82073 1.17915 0.726124 0.109611 1.11737
54 1 9.75842 6.81687 6.72247 -0.15502 0.190784 -0.838951
55 1 2.74994 2.72771 2.52096 -0.0416945 -0.633212 0.609337
56 1 2.75367 2.58281 8.13333 -1.06346 0.704981 0.494969
57 1 2.75091 8.21758 2.59682 -0.658908 -0.0382573 0.00517595
58 1 2.58999 8.20508 7.94013 0.507632 -0.104619 1.3698
59 1 8.19355 2.64064 2.63918 0.273564 -0.849797 -0.644138
60 1 8.26935 2.5175 8.0222 0.358196 0.874864 0.287279
61 1 4.07491 1.17659 1.13627 0.452848 0.488132 0.54323
62 1 4.04944 1.2633 6.82119 0.851306 -1.23345 -1.55879
63 1 8.14041 8.17464 2.72386 0.832295 -0.0783599 -1.26583
64 1 8.34873 8.08997 8.06748 -0.0794277 1.04081 0.556108
