ITEM: TIMESTEP
660
ITEM: NUMBER OF ATOMS
64
ITEM: BOX BOUNDS xy xz yz pp pp pp
-2.1577784230499999e-01 1.1187578062354000e+01 -2.1577784230499999e-01
-5.8671844649000000e-02 1.1223192087773000e+01 5.3801181254999997e-02
0.0000000000000000e+00 1.0992593606461000e+01 -5.8671844649000000e-02
ITEM: ATOMS id type x y z fx fy fz
1 1 1.30359 3.99928 1.24136 -0.532595 0.772836 0.0402695
2 1 1.24337 9.46931 6.61005 0.497844 1.47901 0.796906
3 1 6.89433 4.01203 1.32337 0.412148 0.237112 -0.848695
4 1 6.9276 3.95589 6.76254 -0.355459 0.398859 -0.501649
5 1 6.7543 9.62622 1.24468 -0.634978 -0.24662 -1.25204
6 1 6.80723 9.6783 6.80593 0.260129 -0.385177 -1.4312
7 1 10.987 11.0043 2.63204 0.632756 0.112919 -0.701196
8 1 11.0109 10.9431 8.00907 -0.144669 0.0780258 -0.0372638
9 1 10.9677 5.44854 2.5408 0.823699 -0.633822 0.658153
10 1 11.0063 5.28822 8.11748 0.309998 0.0497328 -0.0157696
11 1 5.3223 10.9384 2.55335 0.227428 1.69462 -0.100812
12 1 5.41718 10.985 8.04139 -1.03277 0.209024 0.708108
13 1 5.56348 5.56483 2.65302 -1.04065 -1.16966 -0.0950303
14 1 1.37411 3.94855 6.73856 -0.34861 -0.349547 0.65015
15 1 1.1795 9.54712 1.15619 0.603049 0.52429 0.711775
16 1 5.43287 5.37399 8.11334 0.55518 0.471824 -0.569955
17 1 1.34911 6.68499 4.02704 -1.01312 0.466092 -0.596236
18 1 1.24102 6.69163 9.4679 -0.231093 0.120999 0.188661
19 1 6.92037 1.20416 3.98824 -0.274057 -0.469417 -1.417
20 1 7.13812 0.992332 9.42323 -2.2166 2.37725 -0.121117
21 1 6.79935 7.02741 4.00486 1.32602 -1.74574 1.60532
22 1 6.7664 6.77543 9.53008 0.05207 0.969638 -1.00141
23 1 11.1651 2.58293 10.9193 0.187598 -0.934473 -1.40631
24 1 11.0818 2.55284 5.41904 0.349396 0.331039 -0.923635
25 1 11.0051 8.15659 10.7831 -0.318319 -0.217202 0.121013
26 1 11.0707 8.16156 5.28747 -1.68892 -0.0174179 -0.590607
27 1 5.62519 2.47953 10.8118 0.131109 0.518394 -0.165038
28 1 5.61259 2.58088 5.21644 -1.20959 0.967938 1.37461
29 1 1.42575 1.23607 3.98195 -0.464462 0.449503 -0.381866
30 1 1.44814 1.10138 9.43764 0.0964119 0.780842 0.415266
31 1 5.24452 8.11272 10.883 1.62434 0.983688 -0.497864
32 1 5.37548 8.3198 5.49955 -0.498357 0.0656383 -1.65954
33 1 4.07557 4.07191 4.00911 1.20041 -0.0377766 -0.427114
34 1 3.93095 9.49473 9.35483 0.605273 0.703616 0.821226
35 1 9.71026 3.94142 3.89015 0.340739 0.883968 1.69619
36 1 9.66655 3.8772 9.54391 0.238996 0.583606 -0.195086
37 1 9.57839 9.71506 3.91589 -0.0764556 -1.134 1.23204
38 1 9.65729 9.61188 9.42935 -0.544739 -0.22513 0.365582
39 1 2.71951 10.9746 10.8583 -1.29965 -0.606842 -0.752044
40 1 2.56088 11.1018 5.29792 0.421898 -1.22964 0.123622
41 1 2.60382 5.39946 10.9094 0.743253 -0.675595 -0.949178
42 1 2.68952 5.35336 5.4231 0.353201 0.356678 -0.228807
43 1 8.14522 11.001 10.7869 1.91411 -1.02941 1.57792
44 1 8.04758 11.1219 5.25569 1.21019 -1.4487 1.10067
45 1 8.2236 5.42681 10.69 0.407243 -1.11139 2.05344
46 1 4.13957 4.05276 9.5124 -0.0151613 -1.00701 0.686458
47 1 3.94005 9.64339 3.85466 0.176005 -0.646139 1.82607
48 1 8.34915 5.38965 5.3875 -1.35105 1.14507 -1.11396
49 1 3.99871 6.71441 1.21635 -0.0621741 0.65967 0.958598
50 1 3.99535 6.86061 6.78124 0.854294 -1.22506 -0.490602
51 1 9.89383 1.14859 1.24259 -2.0968 0.280591 0.176027
52 1 9.70821 1.13094 6.70871 0.279001 0.355016 0.114835
53 1 9.60272 6.78333 1.21544 -1.00785 1.05916 -0.299939
54 1 9.68752 6.81158 6.8172 -0.394763 0.00858595 -0.670508
55 1 2.72653 2.7546 2.54047 0.465765 -1.23822 0.820481
56 1 2.91099 2.58782 8.10991 -1.08841 -0.220803 -0.119809
57 1 2.58486 8.14074 2.60683 0.132737 0.109545 -0.371143
58 1 2.54499 8.05112 8.07724 -0.0780761 1.06277 0.197005
59 1 8.36644 2.55962 2.71304 -0.225874 -0.489112 -2.12754
60 1 8.336 2.60279 8.0893 0.115123 -0.93287 -0.0142642
61 1 4.10103 1.25248 1.20598 0.906711 -0.13577 0.530879
62 1 4.20413 1.18787 6.65312 0.529853 0.17934 0.30993
63 1 8.15332 8.33096 2.58181 1.02039 -0.830424 -0.274012
64 1 8.17948 8.27555 8.08932 0.240891 -1.05393 0.48706
