ITEM: TIMESTEP
80
ITEM: NUMBER OF ATOMS
64
ITEM: BOX BOUNDS xy xz yz pp pp pp
-2.1577784230499999e-01 1.1187578062354000e+01 -2.1577784230499999e-01
-5.8671844649000000e-02 1.1223192087773000e+01 5.3801181254999997e-02
0.0000000000000000e+00 1.0992593606461000e+01 -5.8671844649000000e-02
ITEM: ATOMS id type x y z fx fy fz
1 1 1.34491 4.0371 1.30144 -0.14576 0.112568 -1.02079
2 1 1.09237 9.5728 6.67633 1.3692 0.325402 0.0454162
3 1 6.99012 4.12769 1.29971 0.0900858 -1.22246 -2.22197
4 1 6.95119 3.99416 6.73499 -0.154893 0.057992 -0.0203916
5 1 6.70798 9.6687 1.22074 0.216369 -0.735123 0.194862
6 1 6.72442 9.63752 6.79254 0.110621 0.157604 0.26552
7 1 10.9643 10.8462 2.62496 -0.51444 1.67006 0.647038
8 1 11.1002 10.9591 8.19092 -1.25532 0.613234 -0.912531
9 1 10.9726 5.369 2.57125 -0.346937 0.134288 -0.176286
10 1 11.1457 5.29234 7.9753 -0.983701 -0.381751 0.0660506
11 1 5.29558 11.0717 2.57536 -0.184022 -0.717922 0.345003
12 1 5.33728 11.0516 8.25995 0.371494 0.812043 -1.8758
13 1 5.63498 5.4953 2.47526 -2.48423 -0.0497544 0.976857
14 1 1.42368 3.84041 6.67626 -0.582474 0.270873 0.162009
15 1 1.17307 9.60315 1.30971 0.682478 -0.586933 -0.919492
16 1 5.44126 5.46217 8.0668 0.423368 -0.409664 -0.187053
17 1 1.31769 6.65542 3.92099 -0.624113 0.734831 0.709155
18 1 1.11762 6.70817 9.41301 1.43608 1.06534 0.672496
19 1 6.91159 1.16337 3.93892 0.00743491 0.246007 0.733116
20 1 7.05302 1.20374 9.50165 -0.0250144 -0.280044 0.14858
21 1 6.7742 6.79522 4.05288 -0.304414 1.01763 0.187463
22 1 6.81693 6.9902 9.32963 -0.203707 -1.97105 1.33793
23 1 11.1902 2.47027 10.9584 -0.30734 0.673504 -0.811316
24 1 11.1459 2.42929 5.31923 -0.00624707 1.40017 -1.13295
25 1 10.9969 8.24741 10.8551 -0.338462 -1.45354 0.474838
26 1 10.9923 8.15158 5.29308 -0.120538 -0.333052 -0.344092
27 1 5.64047 2.63951 10.7931 0.137315 -0.0155038 0.78277
28 1 5.50257 2.59866 5.34927 0.711622 0.080729 -0.14824
29 1 1.49396 1.10833 3.94819 -0.706731 0.399791 -0.251164
30 1 1.49526 1.13686 9.51965 -0.339232 0.504648 0.284598
31 1 5.36685 8.19407 10.78 0.00297695 0.691105 0.15177
32 1 5.30708 8.32955 5.41634 0.790247 -1.03899 -0.654312
33 1 4.21437 4.00741 3.91077 0.168871 0.331418 -0.046505
34 1 3.94354 9.68187 9.4103 -0.716742 -1.0858 1.29526
35 1 9.6036 3.9071 3.92763 1.05883 -0.109134 0.874861
36 1 9.76004 3.88549 9.43158 0.480442 0.00683291 0.337646
37 1 9.53486 9.59483 3.97401 -0.584101 -0.439699 0.637168
38 1 9.68835 9.66308 9.55664 -1.18207 -0.930927 -1.15104
39 1 2.56724 11.0345 10.9724 0.186068 -1.04337 -1.09843
40 1 2.62296 11.0326 5.36804 -1.10047 0.154787 0.985661
41 1 2.72121 5.49779 10.8235 -1.09822 -1.81173 -0.733061
42 1 2.72304 5.2467 5.34119 0.30151 0.930929 -0.644403
43 1 8.24376 10.9559 10.87 -0.564513 0.388373 0.1883
44 1 8.06753 10.9964 5.42592 0.976068 0.285232 -0.765446
45 1 8.31503 5.42785 10.6187 -0.752652 -0.0561058 0.837798
46 1 4.16461 3.97482 9.51326 -0.2965 0.65677 -0.446949
47 1 3.88259 9.67491 4.09788 1.08783 -0.760976 -1.9828
48 1 8.28413 5.4467 5.27408 -0.208352 -0.873832 0.655036
49 1 3.95371 6.80903 1.171 1.6236 0.852236 0.84212
50 1 4.01104 6.80093 6.66267 -0.431859 -0.070508 0.607124
51 1 9.76231 1.12286 1.3512 0.229333 -0.122025 -0.697162
52 1 9.87033 1.17404 6.72123 -0.794049 -1.49964 0.675576
53 1 9.42647 6.81256 1.23359 1.90152 0.367404 -0.611394
54 1 9.65372 6.77777 6.7132 0.0144187 -0.264292 -0.122544
55 1 2.77244 2.68132 2.59279 0.582303 -1.09724 -0.354961
56 1 2.81465 2.52997 8.0897 -0.627414 0.995428 1.14818
57 1 2.5809 8.18839 2.58437 0.539102 0.0627807 0.609372
58 1 2.53716 8.21699 8.04306 0.211717 -0.457798 0.207098
59 1 8.28377 2.51648 2.52724 -0.0733129 0.479896 0.608731
60 1 8.42093 2.47883 8.04413 -0.361985 0.818916 0.0229754
61 1 4.19212 1.19676 1.12208 0.0860357 1.41124 1.27499
62 1 4.1066 1.27855 6.76097 1.72786 -1.59228 -0.151729
63 1 8.10903 8.15397 2.64808 -0.131612 1.20984 -0.347537
64 1 8.23829 8.19639 8.06933 1.02662 1.49126 -0.163036
