ITEM: TIMESTEP
930
ITEM: NUMBER OF ATOMS
64
ITEM: BOX BOUNDS xy xz yz pp pp pp
-2.1577784230499999e-01 1.1187578062354000e+01 -2.1577784230499999e-01
-5.8671844649000000e-02 1.1223192087773000e+01 5.3801181254999997e-02
0.0000000000000000e+00 1.0992593606461000e+01 -5.8671844649000000e-02
ITEM: ATOMS id type x y z fx fy fz
1 1 1.39387 4.04977 1.16572 -0.858511 -0.433814 0.436229
2 1 1.20659 9.52549 6.84918 0.357826 0.710585 -0.86794
3 1 6.8999 3.9047 1.26124 -0.948927 0.591485 -0.503186
4 1 6.78449 3.94351 6.61462 1.16129 0.970007 0.37493
5 1 6.85573 9.57799 1.32344 -0.439547 1.3752 -0.0250299
6 1 6.8989 9.56548 6.73173 -0.740876 -0.96801 0.54431
7 1 10.9152 11.1077 2.58111 -1.07473 -0.993637 0.564414
8 1 10.9326 10.9417 8.17197 -0.30522 1.04767 -0.399387
9 1 11.1625 5.44262 2.588 -1.04391 -1.14218 -0.683607
10 1 11.0459 5.44354 8.19418 0.545871 0.931673 -1.15583
11 1 5.25984 11.0904 2.63252 0.944975 -1.53725 -0.0686696
12 1 5.40206 10.8613 8.00207 0.118595 1.12456 0.394093
13 1 5.31618 5.3986 2.56554 1.33611 -0.613821 -0.481103
14 1 1.25809 4.10656 6.72591 0.506641 -0.424744 0.127591
15 1 1.16492 9.749 1.23608 0.082445 -0.786066 -0.0888723
16 1 5.43435 5.44652 8.09579 0.605505 -0.971152 -0.144951
17 1 1.35226 6.75194 3.90384 0.626754 1.45692 0.783996
18 1 1.45006 6.88691 9.48452 -1.30744 -0.108405 -0.741193
19 1 6.91916 1.06831 4.0527 -0.00347029 0.556364 -0.238318
20 1 6.89928 1.14915 9.40509 0.350007 0.150915 -0.0811136
21 1 6.79543 6.74061 3.89712 1.42044 0.115373 0.0905108
22 1 6.79651 6.79905 9.50365 0.624779 -0.474223 0.0549881
23 1 11.1766 2.59104 10.7536 -0.936448 0.0994443 1.78745
24 1 11.0115 2.62143 5.43071 0.0538615 0.0535613 -0.238773
25 1 11.1004 8.21706 10.8202 0.0148457 0.266163 -0.147507
26 1 11.0728 8.31439 5.23425 0.275252 -1.59696 1.1273
27 1 5.46982 2.47146 10.7558 0.278107 0.829088 1.04306
28 1 5.41896 2.45097 5.32799 0.87049 1.16887 -0.683812
29 1 1.18811 1.17706 4.10584 1.37601 -0.118812 -0.071724
30 1 1.41069 1.30638 9.49702 0.794777 -2.12941 -0.653592
31 1 5.52705 8.19287 10.9414 -0.482722 -0.414303 -0.305654
32 1 5.52341 8.21317 5.30248 -1.02651 0.0789736 -0.3168
33 1 4.06129 3.93985 3.89952 -0.291691 -0.289517 1.07303
34 1 4.1603 9.50876 9.45363 -0.674872 0.62771 0.911683
35 1 9.69978 3.93362 3.89538 0.242453 0.103569 -0.202577
36 1 9.79872 3.92921 9.43458 -1.20951 0.582774 0.3029
37 1 9.56735 9.54594 4.04151 0.241874 1.55639 -0.925969
38 1 9.54155 9.55022 9.56661 0.564416 0.679257 -0.0549962
39 1 2.63317 10.9247 10.856 0.314468 1.4115 -0.873104
40 1 2.55336 10.9132 5.33498 -1.35341 1.69146 1.4282
41 1 2.65407 5.43702 10.7569 1.14439 -0.44172 0.85406
42 1 2.80483 5.39152 5.41312 -1.28522 -0.310099 -1.36188
43 1 8.1584 11.0934 10.7961 -0.259967 -1.12809 0.670031
44 1 8.11071 10.9385 5.4225 0.795569 0.397136 -1.04115
45 1 8.26089 5.31982 10.7626 0.379307 -0.187655 0.611296
46 1 4.05731 3.99791 9.5006 0.867862 0.232865 -0.370528
47 1 3.84632 9.66177 4.0491 2.24579 -1.5792 -1.28846
48 1 8.42994 5.35388 5.24713 -2.22782 0.354272 0.683376
49 1 3.95367 6.84074 1.24954 1.14615 -0.268895 -1.01684
50 1 4.11881 6.75856 6.68113 0.352915 1.13634 0.235549
51 1 9.67674 1.24076 1.25366 1.01956 -0.1386 -1.22132
52 1 9.6424 1.16341 6.72266 0.697454 -0.0324257 1.06749
53 1 9.81541 6.72116 1.04448 -1.54428 0.563078 1.63043
54 1 9.66925 6.9013 6.6905 0.140089 -0.782165 0.298102
55 1 2.5369 2.53101 2.66612 0.905468 0.663868 -0.272748
56 1 2.75225 2.69199 8.05645 -0.22888 -0.775513 -0.341542
57 1 2.66435 8.30112 2.40298 -1.0523 -0.0467047 2.21936
58 1 2.77652 8.22648 8.05865 -0.305335 -0.631172 -0.0252669
59 1 8.27529 2.42946 2.59164 -0.415704 1.36537 0.772491
60 1 8.30344 2.69093 8.10142 -0.634016 -1.0242 -0.608837
61 1 4.10309 1.26289 1.36143 -0.468622 -0.440069 -1.29764
62 1 4.18182 1.14701 6.72404 -1.04476 -0.555929 0.588816
63 1 8.39965 8.17742 2.58393 -1.02536 -1.28659 -0.693992
64 1 8.24191 8.18316 8.21721 -0.212276 -0.261115 -1.18176
