ITEM: TIMESTEP
120
ITEM: NUMBER OF ATOMS
64
ITEM: BOX BOUNDS xy xz yz pp pp pp
-3.1140387182500001e-01 1.1087275714303001e+01 -1.5890782108999999e-02
0.0000000000000000e+00 1.1635512432473000e+01 -2.9551308971599999e-01
0.0000000000000000e+00 1.1127300537966001e+01 2.9068760474299998e-01
ITEM: ATOMS id type x y z fx fy fz
1 1 1.34746 4.22437 1.21487 -0.187458 -0.84898 0.82453
2 1 1.11846 9.93326 6.66974 0.413175 -0.707756 1.02024
3 1 6.79069 4.12878 1.20402 1.37864 -0.730389 -0.00910861
4 1 6.72586 4.18553 6.80196 -0.299429 0.771757 -0.385905
5 1 6.8271 9.77749 1.27657 0.0593759 0.361874 -0.342876
6 1 6.71583 10.0403 6.748 -0.116958 -1.19917 0.549363
7 1 11.015 11.0821 2.78508 0.417589 1.766 -1.8042
8 1 10.9588 11.3243 8.19429 -1.04437 0.748255 -0.460842
9 1 10.9792 5.62296 2.70906 0.183839 -0.46025 -0.706438
10 1 10.9542 5.68132 8.26835 -0.757293 -0.52252 -0.745498
11 1 5.44189 11.2707 2.7109 0.520685 -0.143401 -0.709689
12 1 5.21197 11.2166 8.21412 0.00779314 0.999011 -0.280359
13 1 5.44905 5.48054 2.53084 -0.0776263 1.27439 0.898304
14 1 1.17961 4.21959 6.70171 0.724309 -0.123586 1.68056
15 1 1.27584 9.75463 1.18873 0.6325 -0.287423 1.35197
16 1 5.38051 5.73309 8.09921 -0.85654 -0.333059 0.574609
17 1 1.35077 7.0758 3.9803 -0.883535 0.205063 -0.680579
18 1 0.906506 7.14714 9.80192 2.00178 -0.334035 -1.53092
19 1 6.78989 1.44003 3.95381 0.588162 -0.709304 1.17398
20 1 6.74279 1.30655 9.50784 -1.10676 0.929829 0.674787
21 1 6.8266 6.94594 4.04783 -0.516792 0.943811 -1.26431
22 1 6.70479 7.25797 9.45871 -0.905898 -0.793019 0.946807
23 1 10.6915 3.06329 10.9797 0.847909 -1.36737 0.353274
24 1 10.949 2.73016 5.4375 -0.0609777 0.672167 -0.641953
25 1 10.673 8.56438 10.9967 -0.000539552 0.477296 0.602434
26 1 10.9061 8.31727 5.3448 0.978901 0.801758 0.47718
27 1 5.34065 2.89791 10.9235 0.397794 -0.535878 -0.589308
28 1 5.3258 2.83732 5.4067 0.289162 -0.611317 0.0797165
29 1 1.3253 1.38539 4.0561 -0.638267 -0.609246 -0.610971
30 1 1.10368 1.5019 9.66318 -0.268199 -0.0117325 0.529603
31 1 5.23549 8.68386 10.8837 0.529353 -1.04599 0.602924
32 1 5.43747 8.40671 5.49374 -0.376405 0.379333 -0.626526
33 1 4.01917 4.29062 4.05888 -0.175934 -0.556491 -0.607857
34 1 3.71288 9.95435 9.69843 0.488526 0.711328 -0.996854
35 1 9.53107 4.22506 4.11864 0.514622 -0.795439 -1.05088
36 1 9.33969 4.3522 9.5673 0.457012 0.169918 -0.176556
37 1 9.64947 9.70743 3.99981 -1.6497 1.07684 0.877273
38 1 9.44751 9.86892 9.44667 0.516851 1.14156 0.802494
39 1 2.50852 11.4404 11.1372 -0.567024 0.772676 -0.710653
40 1 2.62246 11.2335 5.3533 -0.186353 0.390472 0.419071
41 1 2.56225 5.76621 10.9459 -0.989677 -0.120627 -0.133204
42 1 2.53695 5.71016 5.3147 1.02511 -0.985419 1.33152
43 1 8.06302 11.2365 10.8746 -0.0677215 1.06508 0.806454
44 1 8.18466 11.2483 5.40637 0.430405 0.78856 -1.24687
45 1 7.93172 5.72154 10.9118 0.336334 1.17673 0.535917
46 1 3.95538 4.31117 9.60163 -0.187126 0.00328398 -0.986957
47 1 4.08007 9.8878 4.08899 0.141451 -0.698332 -0.44739
48 1 8.13955 5.62149 5.39289 0.66401 -0.0920839 1.36829
49 1 4.10626 6.96135 1.08597 0.852335 -0.0599702 1.19117
50 1 3.84637 7.11529 6.83188 0.201802 -0.00203495 0.218688
51 1 9.64173 1.17268 1.21861 0.523913 -0.15018 0.164795
52 1 9.50822 1.48435 6.76148 -0.273232 -0.892438 1.45468
53 1 9.5443 6.97352 1.27733 0.132671 -0.967569 -0.535035
54 1 9.61541 7.09924 6.83087 -1.56466 -0.757265 0.11952
55 1 2.73583 2.71923 2.64768 -0.138231 0.725885 -0.436526
56 1 2.57236 2.73216 8.26816 -0.352886 1.37615 -1.00632
57 1 2.86888 8.37638 2.62532 -1.28849 0.554625 -0.677577
58 1 2.38693 8.52813 8.31149 -0.168753 -0.252862 -0.731864
59 1 8.28892 2.68362 2.57769 -0.210465 0.743628 0.142321
60 1 8.00862 2.90013 8.25552 1.12584 -1.25876 -0.934914
61 1 4.25518 1.38394 1.23095 -1.2398 -0.874585 0.452626
62 1 3.89913 1.34215 6.7584 0.523811 0.260164 0.616932
63 1 8.27038 8.43709 2.589 -1.26599 -0.894512 0.760323
64 1 8.07454 8.58437 8.16735 0.517435 -0.554462 -1.53341
