ITEM: TIMESTEP
20
ITEM: NUMBER OF ATOMS
64
ITEM: BOX BOUNDS xy xz yz pp pp pp
-3.1140387182500001e-01 1.1087275714303001e+01 -1.5890782108999999e-02
0.0000000000000000e+00 1.1635512432473000e+01 -2.9551308971599999e-01
0.0000000000000000e+00 1.1127300537966001e+01 2.9068760474299998e-01
ITEM: ATOMS id type x y z fx fy fz
1 1 1.23424 4.14461 1.2609 0.962606 -0.527193 -0.597816
2 1 1.13557 9.95668 6.76426 0.219866 -0.213017 0.175579
3 1 6.87778 4.08526 1.04249 0.132767 0.0826302 0.739803
4 1 6.61049 4.22199 6.80946 0.377989 -0.458603 0.244847
5 1 6.84396 9.87366 1.1285 0.313728 -0.828478 0.553058
6 1 6.76111 9.85812 6.77538 -0.420948 0.259654 0.182825
7 1 11.0112 11.271 2.73157 -0.224248 -0.418885 -0.378322
8 1 10.8993 11.3192 8.29366 0.208558 0.136785 -0.106731
9 1 11.0259 5.59295 2.54791 -0.722262 0.226127 0.732553
10 1 10.7054 5.53901 8.24568 0.532762 0.621987 -0.0629633
11 1 5.60757 11.339 2.59795 -0.618676 -0.113921 0.279693
12 1 5.29845 11.3584 8.16966 0.221515 -0.238541 -0.227176
13 1 5.61036 5.46663 2.5826 -0.78797 0.531179 0.116599
14 1 1.08579 4.31876 6.84523 0.692662 -0.36756 -0.505505
15 1 1.28231 9.79974 1.28302 0.0280762 -0.0873907 0.130806
16 1 5.2256 5.69806 8.27098 0.122006 0.158682 -0.708803
17 1 1.27065 7.04171 3.93865 0.323344 -0.131495 0.343674
18 1 1.06763 7.04671 9.56047 -0.00953873 0.302585 0.343417
19 1 6.90717 1.41941 4.09876 -0.157649 -0.155131 -0.694684
20 1 6.65757 1.46078 9.53069 0.249817 -0.687613 -0.135476
21 1 6.71915 6.99518 4.08953 0.389679 -0.261063 0.181993
22 1 6.64074 7.2372 9.47881 0.445685 -0.602206 -0.120898
23 1 10.7582 2.85363 11.007 -0.24824 0.498555 0.00179622
24 1 11.0613 2.76059 5.4228 -0.590678 -0.218695 -0.0879857
25 1 10.852 8.47425 11.0872 -0.68724 0.673832 -0.66039
26 1 10.9528 8.38311 5.39572 -0.255625 0.263872 -0.165383
27 1 5.24984 2.7749 10.9273 -0.218873 1.05915 -0.0228643
28 1 5.35653 2.7082 5.37619 0.112402 0.747088 0.222056
29 1 1.36084 1.39138 3.99572 -0.0701056 0.00878338 0.342758
30 1 1.17429 1.5453 9.63773 -0.290161 -0.251633 -0.327977
31 1 5.2838 8.57312 10.8811 -0.676693 0.768939 0.537727
32 1 5.22722 8.5032 5.38491 0.688552 -0.133491 0.259921
33 1 4.08174 4.23949 4.03292 0.085963 -0.0847658 -0.0302707
34 1 3.83695 10.1288 9.60964 -0.149932 -0.86925 0.327199
35 1 9.73379 4.12729 3.96525 -0.905716 0.213397 0.149104
36 1 9.23818 4.15346 9.5581 1.03677 0.171805 0.0163452
37 1 9.51849 9.88128 4.08687 0.464605 -0.553219 -0.415712
38 1 9.47876 9.90499 9.65439 0.116241 -0.198889 -0.506981
39 1 2.42904 11.4998 11.132 0.380692 -0.00705852 -0.735132
40 1 2.6746 11.3287 5.42687 -0.52377 -0.228911 -0.3737
41 1 2.49089 5.70937 11.0102 -0.117148 0.380532 -0.0278416
42 1 2.59722 5.5997 5.40614 -0.148247 0.682232 0.132547
43 1 8.08542 11.4276 10.9046 -0.369607 -0.0763571 0.402446
44 1 8.20479 11.2954 5.45901 -0.229333 -0.209309 -0.108243
45 1 8.0277 5.82329 10.8667 -0.517145 -0.331316 0.250896
46 1 3.83042 4.24493 9.6162 0.432725 0.498438 0.0913329
47 1 4.03988 10.011 3.8847 0.264809 -0.741131 0.857521
48 1 8.15069 5.38843 5.38941 -0.121145 1.26734 -0.449513
49 1 4.20295 6.91506 1.28561 -0.353654 0.048829 -0.825655
50 1 3.80272 7.16727 6.87977 0.470586 -0.370803 -0.306844
51 1 9.59638 1.24526 1.31479 0.400752 0.0444441 -0.366918
52 1 9.62962 1.31039 6.81524 -0.0477032 0.317406 -0.277407
53 1 9.47658 6.99849 1.28413 0.775033 -0.267241 0.108167
54 1 9.48965 6.91037 6.68997 0.167456 0.288638 0.264114
55 1 2.77579 2.84189 2.66228 -0.884441 -0.248768 -0.304014
56 1 2.53642 2.97405 8.12508 -0.17832 -1.03583 0.593276
57 1 2.76228 8.41046 2.57549 -0.126153 0.0458514 0.266054
58 1 2.42217 8.62527 8.25996 0.411434 -0.432513 0.00617575
59 1 8.24618 2.82439 2.58083 0.228093 -0.744585 0.215422
60 1 8.09118 2.63374 8.03374 -0.487127 1.43965 0.70457
61 1 4.09734 1.36443 1.33842 0.437507 -0.383313 -0.423151
62 1 3.93271 1.4582 6.79581 0.128273 -0.182476 0.286205
63 1 8.08597 8.43381 2.72657 0.448275 0.236929 -0.600711
64 1 8.26702 8.41819 8.07597 -1.13289 0.685311 0.494585
