ITEM: TIMESTEP
220
ITEM: NUMBER OF ATOMS
64
ITEM: BOX BOUNDS xy xz yz pp pp pp
-3.1140387182500001e-01 1.1087275714303001e+01 -1.5890782108999999e-02
0.0000000000000000e+00 1.1635512432473000e+01 -2.9551308971599999e-01
0.0000000000000000e+00 1.1127300537966001e+01 2.9068760474299998e-01
ITEM: ATOMS id type x y z fx fy fz
1 1 1.47708 4.06771 1.22745 -1.51469 0.916787 0.898326
2 1 1.15149 9.99828 6.86665 0.91929 -0.677351 -1.13189
3 1 6.90898 4.0728 1.29525 -0.506128 -0.684255 -0.757974
4 1 6.74936 4.14859 6.9596 0.217083 2.62288 -2.67295
5 1 6.93663 9.68443 1.33078 -0.510478 1.88503 -1.07725
6 1 6.69742 10.0532 6.86309 -0.0406663 -2.37744 -0.855983
7 1 10.9736 11.1544 2.59844 0.323765 1.12451 -0.502343
8 1 10.8637 11.3798 8.11765 -0.937267 1.67209 -0.0236233
9 1 10.9391 5.52659 2.6251 1.62019 -0.347713 -0.97076
10 1 10.8377 5.74502 8.18588 0.583858 -0.585016 0.283421
11 1 5.46063 11.2527 2.49091 0.726593 -0.578891 1.38251
12 1 5.35349 11.3785 8.06169 -2.19652 -0.919801 1.51713
13 1 5.48821 5.41965 2.586 -0.432207 1.19191 0.553442
14 1 1.24927 4.26539 6.83093 -0.652655 -0.878174 0.751086
15 1 1.37757 9.78012 1.3235 0.228084 -1.31645 -0.575472
16 1 5.34595 5.68304 8.176 -0.00839139 0.0535176 0.107984
17 1 1.28105 6.88516 4.07634 -0.501999 0.701978 -0.0877916
18 1 1.06427 7.11768 9.70668 0.260101 -0.21939 -0.710971
19 1 6.78475 1.42368 4.0052 -0.666461 -0.812684 0.192886
20 1 6.61437 1.39672 9.37219 0.422183 1.15361 3.52616
21 1 6.7865 6.88201 4.16606 -0.736411 1.06786 -1.29297
22 1 6.66988 7.21349 9.45382 -0.675364 1.12981 1.76175
23 1 10.7716 3.00081 11.0516 0.240231 0.382218 -0.778037
24 1 10.9749 2.7524 5.43216 -0.430034 1.36316 -1.01959
25 1 10.7825 8.584 10.9519 -0.3373 0.580886 0.818465
26 1 10.9926 8.51374 5.41987 0.548147 0.101535 -1.08506
27 1 5.23674 2.85408 11.0279 1.33498 0.271066 -1.85302
28 1 5.36395 2.8261 5.48481 0.00800905 -0.636745 -0.204408
29 1 1.20091 1.29827 4.00643 -0.379727 -0.0126232 0.0448394
30 1 0.97367 1.62379 9.57159 0.525785 -1.19294 0.353615
31 1 5.21521 8.79848 11.0649 0.442181 -2.14034 -2.22241
32 1 5.36182 8.51207 5.39832 0.236912 -0.224754 0.415961
33 1 4.02252 4.14382 4.04837 -0.53676 0.0129433 0.0081317
34 1 3.75771 10.0775 9.57771 0.9491 -0.160117 -0.58121
35 1 9.52205 4.22043 3.918 0.491848 -1.60334 1.05315
36 1 9.41436 4.33926 9.55771 -0.110217 0.399236 0.616546
37 1 9.60647 9.89774 3.932 -2.05416 -0.509888 1.77983
38 1 9.47193 10.043 9.46439 0.284615 0.118148 1.64424
39 1 2.42683 11.5557 10.9624 -0.725911 -0.827056 -0.1269
40 1 2.59025 11.2845 5.26706 0.172902 -0.522529 1.42599
41 1 2.60817 5.74514 10.9689 -1.26743 -0.679085 -0.635023
42 1 2.63983 5.60028 5.55309 0.198358 -0.568642 -1.54559
43 1 8.05955 11.3955 10.9736 -0.409411 0.416379 -0.51025
44 1 8.0123 11.3734 5.5705 1.88754 -0.280925 -2.96942
45 1 7.87995 5.68577 10.9535 1.03828 1.00763 -0.253613
46 1 3.9516 4.33395 9.58537 -0.308185 -0.812931 -0.125785
47 1 4.03102 9.88483 3.89768 -0.0996763 -1.12237 0.127267
48 1 8.2713 5.65117 5.43006 -1.01203 -1.38054 1.61056
49 1 4.09029 6.89867 1.09216 1.77969 0.00346852 1.38029
50 1 3.94748 7.02038 6.81203 0.214929 1.42847 0.306769
51 1 9.67518 1.37749 1.23558 0.122158 -1.94765 -0.615688
52 1 9.41063 1.57959 6.7048 0.972054 -1.37248 1.40524
53 1 9.53929 6.92554 1.25223 0.341653 0.0425575 -0.640065
54 1 9.67427 7.19391 6.74832 -1.79492 -0.278422 0.61382
55 1 2.6316 2.57646 2.6829 1.36509 0.820288 -0.61422
56 1 2.59148 2.69157 8.25876 -0.344098 2.08683 -0.328846
57 1 2.7947 8.07591 2.6183 -0.943324 2.66348 0.212459
58 1 2.43346 8.43022 8.22834 0.892929 0.738942 0.0345548
59 1 8.23828 2.56224 2.53033 -0.0103426 1.67061 1.43919
60 1 8.0595 2.89693 8.23723 1.08719 -1.00616 0.336175
61 1 4.14092 1.24142 1.16823 -1.13694 0.441595 0.830618
62 1 3.8946 1.33378 6.84211 0.204002 0.540777 -1.41799
63 1 8.11671 8.31515 2.63888 1.39253 -0.537009 1.49581
64 1 8.19895 8.66263 8.16923 -0.752573 -1.39651 -0.741092
