ITEM: TIMESTEP
230
ITEM: NUMBER OF ATOMS
64
ITEM: BOX BOUNDS xy xz yz pp pp pp
-3.1140387182500001e-01 1.1087275714303001e+01 -1.5890782108999999e-02
0.0000000000000000e+00 1.1635512432473000e+01 -2.9551308971599999e-01
0.0000000000000000e+00 1.1127300537966001e+01 2.9068760474299998e-01
ITEM: ATOMS id type x y z fx fy fz
1 1 1.38269 4.21401 1.32077 0.713315 -1.87143 -0.351484
2 1 1.2355 9.89195 6.80612 -0.810601 1.37355 0.653877
3 1 6.94937 4.08047 1.02722 -0.156137 0.00857989 1.50136
4 1 6.74892 4.28887 6.83899 -1.10177 -1.46754 1.12023
5 1 6.9796 9.77167 1.19379 -0.696866 0.233207 -0.172294
6 1 6.73161 9.9461 6.80562 0.56494 -1.18542 0.37296
7 1 10.9423 11.2112 2.64099 0.630156 -1.22441 -0.541041
8 1 10.8383 11.4431 8.18046 0.566242 -2.25031 0.256557
9 1 11.0305 5.63004 2.42617 -1.0732 -0.269684 2.09738
10 1 10.6672 5.70565 8.18097 0.846292 -0.792348 0.352511
11 1 5.57148 11.2773 2.51874 -0.303639 -0.212825 0.504158
12 1 5.27151 11.2881 8.074 -0.0129673 0.524776 0.382837
13 1 5.60863 5.43031 2.5814 -0.787864 0.420327 0.308177
14 1 1.11476 4.32648 6.96499 1.39112 0.0264605 -1.38485
15 1 1.38214 9.58171 1.3575 -0.966511 2.05869 -0.0366063
16 1 5.25254 5.86401 8.21166 -0.187855 -2.73857 0.224281
17 1 1.27525 6.98255 4.01475 -0.228517 0.0389949 -0.142211
18 1 0.955246 6.99251 9.63287 1.71329 1.77787 -0.281005
19 1 6.74533 1.42436 4.11743 1.03266 -1.14344 -0.975778
20 1 6.63353 1.37917 9.42269 -0.802144 0.138593 1.47561
21 1 6.70998 6.9028 4.25719 -0.387725 0.788154 -1.58137
22 1 6.61344 7.31505 9.45441 0.494805 -0.72872 0.357872
23 1 10.733 3.01977 11.0086 0.246066 -0.211849 0.248145
24 1 11.0723 2.84503 5.39718 -0.233734 -0.564313 -0.104871
25 1 10.8496 8.57967 11.0866 -0.645249 -0.391178 -0.742744
26 1 11.065 8.48779 5.48193 -0.721414 0.0377584 -1.72394
27 1 5.29243 2.87656 10.9654 -0.139696 -0.401934 -0.975926
28 1 5.35155 2.76132 5.35146 0.854722 0.517397 2.13298
29 1 1.28181 1.26899 3.9623 -0.314095 0.680449 0.683731
30 1 1.00046 1.55136 9.54357 0.582964 0.0683501 1.22172
31 1 5.28845 8.73196 10.7882 -0.695867 -1.39184 2.51205
32 1 5.24592 8.52692 5.46532 0.323694 0.33563 -1.04657
33 1 4.10457 4.14355 4.10364 -0.512292 1.15973 -0.990006
34 1 3.86562 10.0235 9.52282 -1.5629 1.92862 1.65159
35 1 9.67437 4.13911 3.95712 -0.643206 0.811388 -0.0871588
36 1 9.22453 4.28974 9.56184 1.16652 0.243053 0.113766
37 1 9.49024 9.8531 4.08263 0.305389 -0.457205 -0.142676
38 1 9.4799 9.88585 9.68771 0.626814 1.34586 -1.57901
39 1 2.32151 11.5244 11.1082 1.42121 -1.21339 -1.5298
40 1 2.59496 11.2284 5.37277 0.139725 0.0986472 -0.588508
41 1 2.57092 5.73014 11.0089 -1.15357 -0.154802 -0.482176
42 1 2.66312 5.66419 5.3915 -0.726998 -0.937191 1.45326
43 1 8.07642 11.4437 10.8277 -0.505058 -0.656985 0.939582
44 1 8.1285 11.3054 5.51973 0.258859 0.235112 -1.19633
45 1 7.91923 5.87655 10.839 0.330689 -0.147911 0.605919
46 1 3.79733 4.2414 9.62293 2.33266 2.02674 -0.151452
47 1 3.94119 9.92485 3.72295 1.76639 -0.564959 2.91162
48 1 8.11989 5.50025 5.4405 1.84794 0.327602 -0.62879
49 1 4.16239 6.86675 1.17228 1.54289 1.30665 -0.395298
50 1 3.85812 7.19066 6.91414 -0.361574 -0.0370634 -0.834863
51 1 9.59104 1.20599 1.21592 0.37779 0.749262 0.0668362
52 1 9.62342 1.38408 6.72433 -0.814957 0.695943 0.00870549
53 1 9.49743 7.07711 1.22508 0.625432 -1.29468 0.0926089
54 1 9.63218 7.08477 6.6175 -1.47723 -0.514497 0.930205
55 1 2.82359 2.67284 2.78265 -1.59127 1.0145 -1.44573
56 1 2.57146 2.88837 8.34068 -0.26343 -1.81021 -2.67777
57 1 2.81157 8.21114 2.66396 -0.379668 0.128493 -0.657635
58 1 2.46753 8.62565 8.29545 -0.887794 -2.10111 0.583695
59 1 8.21299 2.69939 2.62795 0.390351 0.0166033 -0.241219
60 1 8.12879 2.62681 8.25293 -0.291808 2.30229 -2.03981
61 1 4.11607 1.35469 1.30654 0.207872 -0.448215 -0.840553
62 1 3.94487 1.36717 6.71243 -1.06135 1.2743 1.43938
63 1 8.08191 8.26109 2.73725 0.557211 0.935381 0.352976
64 1 8.27236 8.41916 8.17003 -1.35904 1.55509 -0.987073
