ITEM: TIMESTEP
310
ITEM: NUMBER OF ATOMS
64
ITEM: BOX BOUNDS xy xz yz pp pp pp
-3.1140387182500001e-01 1.1087275714303001e+01 -1.5890782108999999e-02
0.0000000000000000e+00 1.1635512432473000e+01 -2.9551308971599999e-01
0.0000000000000000e+00 1.1127300537966001e+01 2.9068760474299998e-01
ITEM: ATOMS id type x y z fx fy fz
1 1 1.51799 4.09055 1.13156 -1.78171 -1.3714 1.49367
2 1 1.21588 9.99118 6.79858 -0.418201 -0.692108 0.512209
3 1 6.99646 4.0858 1.28962 -1.14085 0.741798 -0.805152
4 1 6.82852 4.38665 6.92485 -0.387793 -0.266541 -0.515766
5 1 6.90316 9.71378 1.28363 -0.167757 -0.166035 -0.472993
6 1 6.74493 9.76401 6.92682 0.130424 1.28476 -1.63725
7 1 10.8572 11.2945 2.51903 0.368468 -1.75546 1.43096
8 1 10.7724 11.4454 8.1717 0.0601088 -1.15743 0.0543596
9 1 11.0741 5.58429 2.51122 -0.302696 -1.18656 0.529726
10 1 10.7416 5.86299 8.15043 1.20446 -0.788039 0.858522
11 1 5.36935 11.1092 2.40237 -0.27973 -0.83931 1.25807
12 1 5.35883 11.2579 8.06582 0.622351 1.41158 0.60124
13 1 5.59013 5.49825 2.65227 -1.14565 -0.754191 0.83923
14 1 1.16712 4.40678 6.94609 -0.126164 -1.21681 -1.30887
15 1 1.24064 9.65635 1.28493 1.5009 1.71946 -1.38185
16 1 5.28258 5.80315 8.18562 1.01592 -0.449512 0.501897
17 1 1.12052 6.96497 4.14144 1.09568 -0.530799 -1.02699
18 1 1.34527 7.06578 9.54289 -2.07965 1.59645 -0.754203
19 1 6.57978 1.20287 3.85764 1.15506 1.74087 1.7688
20 1 6.45343 1.49654 9.65224 2.47596 0.863826 -1.03322
21 1 6.88078 7.01822 4.00096 -1.82687 -0.914325 1.45801
22 1 6.6106 7.3021 9.64679 0.611263 -1.43074 -0.37825
23 1 10.8258 2.9213 10.8018 0.170765 0.691095 1.72159
24 1 11.0068 2.84327 5.39717 -0.583073 0.0266517 1.05636
25 1 10.9323 8.58772 10.8506 0.0240127 -0.933686 0.742952
26 1 11.0145 8.57293 5.30653 -1.90596 -0.0234721 1.18524
27 1 5.13343 2.94542 11.1533 -0.452896 -0.330061 -0.573338
28 1 5.52938 2.90313 5.49311 -0.228607 -1.60878 -0.750359
29 1 1.09312 1.2071 4.11552 0.410096 1.02593 -1.07283
30 1 1.10647 1.49962 9.47415 -0.203355 -0.0782641 -0.012536
31 1 5.21945 8.5144 11.0488 0.0250957 1.60356 -0.467499
32 1 5.3762 8.43217 5.45453 0.332273 -0.100092 -1.37065
33 1 4.01298 4.09099 4.1183 0.803214 0.606483 -1.16957
34 1 4.06012 10.1203 9.50519 -1.6889 -2.87874 0.282154
35 1 9.60011 4.14437 3.99162 0.465896 1.42472 0.280241
36 1 9.37709 4.36495 9.55701 0.373023 1.19839 0.962002
37 1 9.32375 9.86489 3.97634 2.62415 0.883929 0.280635
38 1 9.48833 10.017 9.82616 -1.42549 0.572541 -3.17808
39 1 2.35191 11.2737 10.6621 -0.114345 -0.156762 2.96293
40 1 2.53054 11.294 5.3544 2.04482 -0.909939 0.0219044
41 1 2.49137 5.67082 10.9001 1.48969 1.18751 1.33578
42 1 2.64115 5.59645 5.39452 -0.701705 -0.323653 0.226685
43 1 8.01157 11.5378 11.1027 -0.465846 -0.242507 -0.506514
44 1 8.05778 11.2351 5.39527 -0.376599 0.808106 0.544963
45 1 8.02792 5.91386 11.0851 0.666379 -0.540833 -0.69986
46 1 3.88895 4.44333 9.57161 0.526882 -2.34645 -0.381162
47 1 3.90745 9.69471 3.85049 0.331397 1.23005 1.65633
48 1 8.24043 5.69252 5.43615 -0.354114 -1.11088 -0.639691
49 1 4.20876 6.84193 1.2994 -1.51254 -0.628729 -0.727064
50 1 3.94155 7.02433 6.70087 0.662536 0.216679 -0.113885
51 1 9.65704 1.43855 1.31518 -0.467653 0.336034 -1.36094
52 1 9.446 1.4781 6.81588 0.104802 -0.559863 -1.50384
53 1 9.75113 7.20696 1.31432 -0.71097 -2.14705 -0.689879
54 1 9.41337 7.17577 6.7239 1.89404 0.952545 0.0408583
55 1 2.69532 2.50351 2.75076 -0.721246 1.16957 -0.793868
56 1 2.55514 2.80071 8.15227 0.93493 1.12397 0.306931
57 1 2.60899 8.13419 2.63588 0.342132 0.668215 -0.131658
58 1 2.73794 8.45536 8.06065 -0.851908 1.66325 1.20645
59 1 8.18337 2.80956 2.72071 0.103128 -2.03995 0.196949
60 1 8.20543 2.87516 8.20144 -2.80053 -0.719113 1.27939
61 1 3.86932 1.01538 1.21569 0.701789 1.63817 -1.12086
62 1 4.06934 1.39283 6.78319 -0.948473 0.206051 -0.789303
63 1 8.1929 8.2765 2.79045 0.488232 1.44998 -2.0091
64 1 8.15255 8.49455 8.21863 0.411387 1.15589 1.77999
