ITEM: TIMESTEP
610
ITEM: NUMBER OF ATOMS
64
ITEM: BOX BOUNDS xy xz yz pp pp pp
-3.1140387182500001e-01 1.1087275714303001e+01 -1.5890782108999999e-02
0.0000000000000000e+00 1.1635512432473000e+01 -2.9551308971599999e-01
0.0000000000000000e+00 1.1127300537966001e+01 2.9068760474299998e-01
ITEM: ATOMS id type x y z fx fy fz
1 1 1.29691 4.04017 1.15696 0.583057 0.522771 -0.224175
2 1 1.25865 9.90341 6.7725 -0.4366 0.965479 -0.296587
3 1 6.92426 4.0381 1.24824 -1.62839 2.28727 -0.0999442
4 1 6.74279 4.08429 6.89005 -0.349763 1.96371 -0.83435
5 1 6.86853 9.80429 1.19496 -1.12138 0.214223 0.172845
6 1 6.77603 9.7738 6.81556 -0.120813 0.711243 0.477963
7 1 11.0476 11.2874 2.79257 0.135027 -0.351737 -1.7042
8 1 -0.218247 11.1398 8.3459 0.272415 1.38553 -1.44533
9 1 0.0766227 5.46906 2.60698 -1.4625 0.848239 -0.998527
10 1 10.8085 5.69249 8.31866 0.485842 -0.886581 -1.61632
11 1 5.29884 11.1735 2.53339 1.694 1.5803 0.644541
12 1 5.46211 11.4255 8.22988 -0.0643389 -0.791771 -0.131788
13 1 5.43814 5.60927 2.70158 1.00636 -0.474483 -1.59254
14 1 1.16936 4.28038 6.80491 -0.416063 0.167823 0.29955
15 1 1.31238 9.83697 1.18588 -1.23079 -0.137841 0.856554
16 1 5.3136 5.74463 8.18693 0.34086 -0.759823 -0.33191
17 1 1.04225 7.03396 4.0687 1.18359 0.900618 -0.351206
18 1 1.19527 7.12773 9.43855 0.0789436 0.663872 0.318409
19 1 6.77664 1.34418 4.06107 -0.185276 -0.997172 -1.49784
20 1 6.76222 1.62851 9.74135 -2.22243 -1.79265 0.449967
21 1 6.81372 7.03307 4.08947 -0.086651 0.54115 -1.25596
22 1 6.57551 7.16639 9.74461 0.126613 -0.630134 -0.7864
23 1 -0.288463 2.9749 10.7904 -0.206373 -1.11763 1.33137
24 1 -0.139725 2.75762 5.52292 -0.459434 -0.375936 -0.580369
25 1 -0.192425 8.53322 10.8282 -0.147424 0.459645 0.96066
26 1 10.8002 8.44985 5.538 0.226668 0.405073 -0.936418
27 1 5.10504 2.95258 11.0265 0.767282 0.0827473 -0.340752
28 1 5.4684 2.82909 5.35482 -0.330979 0.112364 -0.137908
29 1 1.35578 1.34646 4.08628 -0.978404 0.924992 0.329051
30 1 1.22711 1.42496 9.56606 -0.633398 1.04135 -1.74733
31 1 5.17927 8.62422 10.983 0.200661 -0.459733 1.05805
32 1 5.35383 8.43657 5.39715 0.428826 0.958358 -0.775231
33 1 4.05857 4.23422 3.97859 -1.17189 -0.828569 -0.00471566
34 1 3.98367 9.87224 9.47198 -1.39515 2.19214 0.70399
35 1 9.67888 4.16937 3.90971 -1.04838 -0.194504 1.22024
36 1 9.27091 4.27876 9.52896 1.20083 0.082927 -0.0934427
37 1 9.54659 9.88959 3.93721 -0.0384689 -0.860339 0.798766
38 1 9.30833 9.90581 9.58956 0.397924 1.25748 1.64435
39 1 2.41508 11.3489 10.9195 1.85732 -0.549767 -0.811842
40 1 2.7418 11.5181 5.4929 -1.26363 -2.5795 -0.408709
41 1 2.74652 5.53542 -0.185939 0.605026 -0.372733 0.691383
42 1 2.49232 5.63997 5.32727 0.871431 -0.266425 0.23085
43 1 8.01559 11.5093 11.1329 0.911837 -0.840645 -1.28628
44 1 8.15995 11.1869 5.36918 -0.0993485 0.56779 0.628895
45 1 8.10741 5.76731 10.9037 -1.29209 -0.6536 1.47519
46 1 3.84719 4.33882 9.52127 0.265906 0.395164 0.309518
47 1 3.95894 9.997 4.01297 0.373697 -0.965784 0.958708
48 1 8.07672 5.53055 5.31852 1.77729 -0.0688867 1.55239
49 1 3.97461 7.07439 1.40376 0.297999 -0.52051 -1.06154
50 1 3.98178 7.04787 6.59435 -0.561192 -0.318644 1.38141
51 1 9.67925 1.3755 1.32897 0.691101 -0.206026 -0.536287
52 1 9.50778 1.25048 6.93866 0.178193 0.227567 -0.842914
53 1 9.76675 6.95148 1.10109 -0.656147 -0.131246 1.73793
54 1 9.46272 7.02929 6.88866 -0.827103 -0.676988 -0.766461
55 1 2.65741 2.64156 2.58116 0.126536 1.48016 0.778144
56 1 2.67611 2.89302 8.00905 -0.834337 -1.01298 1.49766
57 1 2.56818 8.56078 2.73548 -0.360234 -1.16955 0.0817665
58 1 2.65198 8.54379 8.02958 -0.0394753 -1.01428 0.371824
59 1 8.18954 2.75624 2.62422 0.905711 -0.831998 0.820124
60 1 7.99277 2.66859 8.24676 1.74698 1.13866 -0.804786
61 1 3.8621 1.28892 1.1728 1.93248 -0.709973 0.0663256
62 1 4.1616 1.43597 6.67903 -0.0375542 0.498999 1.7385
63 1 8.18068 8.43173 2.50737 1.32916 -1.48319 0.585211
64 1 8.11493 8.37766 8.38995 -1.29356 0.45398 -1.87006
