ITEM: TIMESTEP
630
ITEM: NUMBER OF ATOMS
64
ITEM: BOX BOUNDS xy xz yz pp pp pp
-3.1140387182500001e-01 1.1087275714303001e+01 -1.5890782108999999e-02
0.0000000000000000e+00 1.1635512432473000e+01 -2.9551308971599999e-01
0.0000000000000000e+00 1.1127300537966001e+01 2.9068760474299998e-01
ITEM: ATOMS id type x y z fx fy fz
1 1 1.44418 4.26871 1.21122 -0.712939 -1.21361 -0.0194838
2 1 1.18676 9.82076 6.78007 0.248593 0.157952 -0.186054
3 1 6.73617 4.15706 1.33511 2.18968 -2.36243 -0.321995
4 1 6.77786 4.31036 6.7905 0.529764 -1.33606 0.0233128
5 1 6.81856 9.83693 1.40378 1.20473 -1.02268 -0.0669144
6 1 6.69818 9.97114 6.86456 0.00414186 -0.48767 -0.838552
7 1 -0.0770463 11.2307 2.57158 -0.00361786 0.463456 1.32802
8 1 -0.247828 11.384 7.89638 -0.291203 -0.627879 2.28014
9 1 10.8842 5.61028 2.53095 0.74941 -0.97049 1.46036
10 1 -0.0430885 5.70588 8.07992 -0.791081 0.414178 1.30868
11 1 5.33326 11.2872 2.6969 -0.57128 -1.4252 -0.388281
12 1 5.23937 11.253 8.19062 0.0445647 0.345182 0.407819
13 1 5.45543 5.51909 2.49572 -1.63972 0.908461 2.02567
14 1 1.2338 4.21613 6.73257 0.0833126 -0.57513 0.252313
15 1 1.26609 9.78226 1.27919 1.21662 -0.564119 0.108602
16 1 5.44438 5.68795 8.02027 -0.859202 0.190066 1.23067
17 1 1.1609 7.10795 3.96739 -0.0984722 -1.63044 0.51842
18 1 1.14534 7.16508 9.66329 0.391169 -0.474807 -0.880438
19 1 6.74482 1.25184 3.9088 0.413117 1.33426 1.36185
20 1 6.53016 1.27606 9.68242 2.07347 1.92058 -0.855053
21 1 6.86131 6.9206 3.94808 0.484191 -0.734269 1.84685
22 1 6.62216 7.14555 9.55084 0.157701 0.317994 0.565777
23 1 -0.235836 2.90979 11.0431 0.133466 1.1119 -0.749814
24 1 10.7698 2.80582 5.41947 0.589809 0.542334 0.677919
25 1 -0.255863 8.61396 11.0072 -0.436183 -0.181293 -0.15467
26 1 10.8782 8.51048 5.3176 0.225948 -0.481511 1.1805
27 1 5.31125 2.94728 10.9789 -0.267948 -0.370424 -0.193193
28 1 5.42283 2.84849 5.31168 -0.107979 -0.549653 0.462806
29 1 1.09184 1.42687 4.21961 1.26888 -1.21362 -2.13834
30 1 1.01829 1.4658 9.45458 0.525734 -0.59564 1.05319
31 1 5.34661 8.67923 11.0522 -0.867151 -0.170671 -0.829653
32 1 5.53298 8.4726 5.32548 -1.48148 -1.09059 1.19446
33 1 3.8786 4.18747 3.96008 1.77897 0.376669 0.0532162
34 1 3.79061 10.0089 9.65465 0.833138 -0.946698 -0.738838
35 1 9.44045 4.23731 4.12995 1.2897 0.0111196 -1.61266
36 1 9.53898 4.58071 9.70861 -0.405689 -1.3868 -0.0177085
37 1 9.54605 9.84683 3.96553 -0.203955 0.611155 0.243807
38 1 9.53043 10.0193 9.59539 -0.20587 -0.0246194 -1.32524
39 1 2.42978 11.3586 10.9671 -0.682149 1.39507 -0.0500937
40 1 2.60147 11.1917 5.38376 -0.0899649 1.16243 0.772811
41 1 2.71305 5.71994 10.8498 -1.26457 0.148244 0.00316252
42 1 2.60823 5.63154 5.33316 -0.561185 0.136823 0.126501
43 1 8.08422 11.2748 10.9861 -0.687998 1.07141 0.487283
44 1 8.05879 11.2729 5.37649 0.303427 -0.102571 -0.104498
45 1 8.1566 5.4825 0.0359941 1.19415 0.468854 -1.58201
46 1 4.06067 4.29175 9.42907 -0.835594 -0.596268 0.0624784
47 1 3.93492 9.73878 4.09784 0.581288 0.220034 -1.4268
48 1 8.36134 5.63084 5.63974 -2.73493 0.732249 -2.3922
49 1 4.1052 6.99612 1.09163 0.706367 -0.487596 0.931121
50 1 3.95052 7.00929 6.77625 1.20764 1.10671 -1.2483
51 1 9.68854 1.23865 1.19866 -0.546045 0.297067 0.011355
52 1 9.34239 1.44404 6.76681 -0.0208573 0.343248 0.455454
53 1 9.56481 7.04354 1.26927 0.60105 -0.853336 -1.47467
54 1 9.47977 7.16296 6.88958 1.07572 0.648483 -0.107011
55 1 2.62089 2.72764 2.68368 0.0100921 -1.10256 -0.901219
56 1 2.57031 2.68654 8.18197 0.507837 1.44511 -0.398974
57 1 2.66709 8.16814 2.61073 0.239237 2.25096 -0.413903
58 1 2.59639 8.39398 8.18787 -0.333352 1.034 0.286238
59 1 8.28558 2.6333 2.69452 -1.11534 0.972527 -1.10444
60 1 8.15402 2.96517 8.3926 -1.20795 -1.3577 -0.0851639
61 1 4.15669 1.28964 1.17471 -1.83928 0.526093 0.620249
62 1 4.07722 1.3605 6.8083 -1.04815 0.170301 -1.1473
63 1 8.33995 8.23085 2.69983 -1.96329 2.53359 -0.248726
64 1 8.0188 8.60279 8.21135 1.01151 -0.432167 0.661175
