ITEM: TIMESTEP
80
ITEM: NUMBER OF ATOMS
64
ITEM: BOX BOUNDS xy xz yz pp pp pp
-3.1140387182500001e-01 1.1087275714303001e+01 -1.5890782108999999e-02
0.0000000000000000e+00 1.1635512432473000e+01 -2.9551308971599999e-01
0.0000000000000000e+00 1.1127300537966001e+01 2.9068760474299998e-01
ITEM: ATOMS id type x y z fx fy fz
1 1 1.43637 3.95717 1.13182 -1.456 1.25162 1.79187
2 1 1.12387 10.0618 6.83778 0.872827 -1.76046 -0.449889
3 1 6.84324 4.1488 1.3121 0.451097 -0.947904 -0.418995
4 1 6.75049 4.19934 6.8431 0.283532 1.76448 -1.33842
5 1 6.88525 9.7015 1.23914 -0.522377 0.773196 -0.0931996
6 1 6.6986 9.94525 6.86759 0.181587 -0.729032 -0.51048
7 1 10.9455 11.1881 2.58206 0.395771 1.61634 -0.303823
8 1 10.8247 11.3282 8.24146 -1.3024 1.53359 -1.21724
9 1 11.0191 5.50659 2.6353 0.987658 -0.939881 -0.853403
10 1 10.8681 5.80539 8.21339 0.0101652 -0.562666 -0.548782
11 1 5.33793 11.1044 2.55925 0.634154 -0.112495 0.22716
12 1 5.47361 11.4473 8.15097 -1.20651 0.373839 0.609609
13 1 5.47135 5.39727 2.68501 -0.642743 1.76034 0.294756
14 1 1.09818 4.30045 6.71671 0.870631 -0.973409 1.56023
15 1 1.26609 9.82433 1.1311 1.33034 -1.48437 0.649185
16 1 5.4018 5.61613 8.25173 -0.511691 0.445337 0.141209
17 1 1.18182 6.90225 4.2094 -0.0823243 0.871185 -1.20503
18 1 1.20723 7.18516 9.51926 0.762876 -0.0998732 -0.443929
19 1 6.69123 1.27997 3.89015 0.160125 -0.427134 1.42192
20 1 6.62776 1.69828 9.59714 -0.441664 -0.426058 0.601565
21 1 6.88632 6.9728 4.04329 -0.544558 0.935656 -1.34585
22 1 6.70756 7.12552 9.67408 -0.929876 0.302763 0.460664
23 1 10.8196 2.9015 10.8749 0.313211 -0.364595 0.540393
24 1 10.9588 2.70874 5.40602 -0.478823 1.47055 -0.325956
25 1 10.8897 8.55789 10.7875 -0.728454 0.904661 1.10937
26 1 10.8588 8.54808 5.37037 0.965109 -0.0214757 0.668914
27 1 5.07019 2.95443 11.1583 1.68096 -0.283916 -0.987017
28 1 5.46566 2.80313 5.43113 -0.314887 -0.99123 -0.087784
29 1 1.20878 1.34283 4.09996 -0.331274 -0.964106 -1.198
30 1 1.11832 1.53065 9.38984 0.0435262 -1.22843 1.55908
31 1 5.12779 8.57564 11.0898 1.04869 -0.856038 -0.822154
32 1 5.40442 8.49581 5.34605 -0.0578756 -0.356587 0.158522
33 1 4.03954 4.03826 4.07632 -0.508864 0.280173 -0.779405
34 1 4.01699 10.0613 9.55753 0.474652 -1.35114 -1.10282
35 1 9.53861 4.21436 4.06243 0.633421 -1.42937 -1.00153
36 1 9.50023 4.32141 9.62203 -0.089682 1.08739 -0.538426
37 1 9.59127 9.88925 3.91851 -1.06993 0.237688 1.19688
38 1 9.33349 10.1049 9.68306 0.59316 -0.0722513 -0.0534443
39 1 2.54869 11.2922 10.7248 -1.79025 1.72023 1.28105
40 1 2.5871 11.3039 5.36081 0.00607999 0.253907 1.16238
41 1 2.49911 5.73983 10.9996 -0.714435 0.199619 -0.45435
42 1 2.63379 5.51705 5.38268 0.361824 -0.006485 0.385247
43 1 7.90215 11.5979 11.0168 0.314976 -0.301391 0.154465
44 1 8.06366 11.2361 5.44517 0.796384 0.548093 -1.3048
45 1 8.09947 5.67203 11.03 0.208663 1.49514 0.635879
46 1 3.85928 4.32876 9.72642 -0.287988 -0.701415 -2.25845
47 1 3.85373 9.88947 3.99248 0.834207 -1.42832 -0.0726442
48 1 8.23642 5.60473 5.31042 -0.62023 0.426505 2.55933
49 1 3.9503 6.8555 1.31096 1.42201 0.0355406 0.527686
50 1 4.08122 6.92518 6.69549 -0.106428 0.843305 0.523758
51 1 9.57485 1.48393 1.26935 0.985227 -1.92081 -0.429333
52 1 9.46029 1.53812 6.69747 -0.514824 -1.46905 2.2219
53 1 9.81513 7.05403 1.23823 -0.878285 -1.58116 -0.83956
54 1 9.50731 7.23036 6.79011 -1.19969 -0.434298 0.709683
55 1 2.65815 2.50816 2.67802 0.475911 0.999301 -0.54381
56 1 2.57188 2.75889 8.12507 0.161303 2.77339 0.398692
57 1 2.56583 8.19628 2.70614 -0.503141 2.09302 -0.805317
58 1 2.75598 8.52473 8.06178 -1.16048 0.241542 0.228919
59 1 8.18023 2.63438 2.69339 -0.0295252 1.47566 0.114609
60 1 8.08594 3.06046 8.23604 1.2289 -1.95322 -0.291282
61 1 4.03442 1.11558 1.17505 -0.440036 0.103313 0.239755
62 1 3.9662 1.44684 6.80726 0.637825 -0.760573 -0.709967
63 1 8.3596 8.42465 2.54957 -1.00623 -1.04249 0.766227
64 1 8.0492 8.62333 8.37983 0.344674 -0.835739 -1.56581
