ITEM: TIMESTEP
890
ITEM: NUMBER OF ATOMS
64
ITEM: BOX BOUNDS xy xz yz pp pp pp
-3.1140387182500001e-01 1.1087275714303001e+01 -1.5890782108999999e-02
0.0000000000000000e+00 1.1635512432473000e+01 -2.9551308971599999e-01
0.0000000000000000e+00 1.1127300537966001e+01 2.9068760474299998e-01
ITEM: ATOMS id type x y z fx fy fz
1 1 1.26837 4.02411 1.33081 1.03288 -1.31356 -0.10845
2 1 1.16293 10.0081 6.83818 -0.702825 0.143566 -0.659096
3 1 7.10429 4.07101 1.1961 -1.91588 0.961371 -0.308407
4 1 6.62156 4.3436 6.9145 0.450039 0.480722 -1.64046
5 1 6.8563 9.71653 1.2069 0.773051 -0.309449 -1.30286
6 1 6.76421 9.91354 6.92697 -0.206215 -0.188355 -1.8967
7 1 10.7611 11.1187 2.57666 2.04734 0.156416 -0.530696
8 1 -0.397351 11.3774 8.22357 1.57354 0.127989 0.746342
9 1 11.2338 5.57481 2.5744 -2.51968 -0.149576 -0.221071
10 1 -0.248436 5.80392 8.02789 -1.4794 0.115346 2.24279
11 1 5.43763 11.0017 2.34125 -0.801354 1.75091 3.24013
12 1 5.18955 11.2932 7.9654 1.31819 1.11369 2.54098
13 1 5.58738 5.4772 2.63254 0.143029 0.840172 -0.222167
14 1 1.11956 4.45677 6.95894 1.41422 -2.59181 -1.7191
15 1 1.26124 9.56494 1.33918 -0.00524753 2.65779 -1.63777
16 1 5.2411 5.78266 8.26217 0.38398 -0.805152 0.876272
17 1 1.27271 6.8148 4.01751 1.74489 2.03881 0.433689
18 1 1.09524 7.14494 9.59945 -0.35999 0.327839 -0.119923
19 1 6.73398 1.4071 4.08418 0.56929 -1.12989 -0.83147
20 1 6.56543 1.60549 9.42787 -1.19171 -1.15983 0.236248
21 1 6.86625 7.15675 4.01119 -1.07021 -1.63193 -0.174745
22 1 6.68673 7.26822 9.4955 0.607073 -1.30835 0.575604
23 1 -0.34564 3.00896 10.9304 -0.53253 -1.18114 0.777206
24 1 11.205 2.83715 5.31251 -1.1853 -0.567085 0.814893
25 1 10.7155 8.61597 10.9286 0.925272 -0.371408 0.374628
26 1 0.00118409 8.4109 5.31758 -1.25735 0.742061 0.292682
27 1 5.17597 2.89878 11.1292 1.30443 0.307069 -1.25981
28 1 5.43485 2.75213 5.53497 -0.760347 0.372971 -0.214472
29 1 1.25457 1.10177 3.88733 -0.285316 1.33914 0.148055
30 1 1.1114 1.44005 9.72821 -0.174941 0.463134 -1.81378
31 1 5.27856 8.45206 10.9714 0.295677 0.9371 -0.137376
32 1 5.39156 8.37685 5.46412 -0.33367 0.340803 0.899557
33 1 4.2191 4.15142 4.12861 -1.85371 -0.926416 -1.70186
34 1 4.06319 9.93584 9.59053 -1.93952 0.00525398 -0.672241
35 1 9.77244 4.25847 3.93546 -1.13934 -0.33993 0.843582
36 1 9.35107 4.31491 9.46589 0.771326 0.523297 -0.50946
37 1 9.496 9.87174 4.01814 0.419355 -0.598433 0.893533
38 1 9.3282 9.9823 9.68651 -0.0978369 1.07147 -0.852072
39 1 2.51659 11.2925 10.9656 -1.19198 -0.391078 0.709094
40 1 2.6231 11.3521 5.3827 -0.351556 -1.39849 -0.229907
41 1 2.28148 5.67928 11.1564 2.58392 1.12585 -1.26816
42 1 2.67988 5.53682 5.47149 -0.118278 0.242118 -0.151702
43 1 7.82097 11.5584 10.899 0.895949 -0.573466 0.289981
44 1 8.16232 11.2905 5.4309 -0.23262 0.219024 -0.054593
45 1 8.15115 5.85022 10.9338 -0.745948 -0.192259 -0.157706
46 1 3.88627 4.32051 9.74026 -0.71083 0.384214 -0.442629
47 1 4.04906 9.80323 4.06599 -0.0313067 0.139726 -0.442481
48 1 8.11621 5.59753 5.28932 0.714311 0.211736 1.18112
49 1 4.17789 6.96646 1.27665 -1.48514 -1.51287 -0.000244693
50 1 3.81561 7.02001 6.95045 0.750991 1.44358 -1.52939
51 1 9.51961 1.30186 1.30673 0.26206 0.657966 -1.26362
52 1 9.61329 1.44298 6.73218 -0.366334 0.709089 -0.798764
53 1 9.70566 7.04727 1.26845 -0.277118 -0.900565 0.284767
54 1 9.45138 7.17753 6.68586 0.883747 -0.908043 -0.616742
55 1 2.83287 2.50804 2.63959 -1.10835 2.8391 1.47006
56 1 2.54343 2.91176 8.16215 -0.703176 -0.549485 1.78363
57 1 2.68047 8.37382 2.64289 0.80662 -1.20703 1.13053
58 1 2.44669 8.62937 8.14643 1.16364 -0.76217 1.54817
59 1 8.21607 2.8472 2.74806 1.02008 -1.42071 -0.0369127
60 1 8.0148 2.85053 7.94454 1.45007 0.113778 1.82055
61 1 4.01436 1.21631 1.24816 1.01932 -1.20047 -1.04282
62 1 3.83907 1.41566 6.76968 0.421196 0.59831 0.08598
63 1 8.20447 8.47063 2.65421 0.674347 -0.56275 -0.516164
64 1 8.23997 8.51131 8.11629 -1.28484 0.650299 0.845754
