48
Lattice="11.18800 0.00000 -0.00000 2.82500 4.87500 -0.00000 -0.10400 -0.49000 14.64600" Properties=species:S:1:pos:R:3:force:R:3 pbc="T T T" energy=-45239.24060514009 virial="20.7974 -22.6681 18.3820 -22.6681 18.4117 21.3597 18.3820 21.3597 20.1652"
Ag     3.92377377     2.47940315     7.51176740    -1.81387215    -1.34655216    -1.09064576
Ag    11.30319930     1.77140321    11.68785983    -2.16852403     1.24667232    -0.04257400
Ag     9.76370283     0.86865536     2.18808368     0.50480358     0.88095334     0.30292879
Ag     5.64737772     1.81315898    11.48490904    -0.93982274     0.22623371    -0.01771188
Ag    11.45748692     3.23667652     9.02822588     1.39423771     0.41280711     0.18298082
Ag     8.40923007     0.14336507     0.01157778    -0.14803085     0.42863829     1.68751690
Ag     8.72181843     3.34956442     2.30647887     0.30017028    -4.80737906    -4.60353187
Ag     8.61847610     2.04510933    12.13264949     0.90545868     0.82195662    -0.04655251
Ag    12.66550231     4.31963821    11.49813880    -0.48441062     1.06684435     0.59062390
Ag    12.69273343     2.60191792     6.49074311    -1.31211320    -2.64475711     4.09319409
Ag     8.17863435    -0.17016099     6.76179567     1.04400825    -1.31257595     1.45138600
Ag     4.21999253     3.71288909     5.21463664     4.06171313    -0.52559671    -2.24633589
Ag     7.00350829     3.61135776     4.92487002    -0.75172470     1.00713245    -1.36558537
Ag     3.02581903     0.19898404     7.10802727    -3.45921149    -0.55774905    -2.45371730
Ag     4.19348224     0.29659327     9.37629218     1.42071732     2.92938290     4.44674531
Ag     3.89218634     3.71852419    12.22203286     2.30500492     0.54787093     1.17460688
Ag     1.42272571     0.56706086     9.78596360     0.12178624    -1.54461569    -1.66638973
Ag     9.65216158     2.18602903    14.63647832    -0.32892155    -2.19526406    -0.51425990
Au    11.30539195     3.46404195     2.40070038    -1.28259133    -1.27578248    -1.40237330
Au     8.37577130     4.32990334    14.58172092    -1.00082269     0.85427432     0.83995554
Au     7.11403979     4.20561925    12.29183820     0.19253474    -0.75822046    -1.64999155
Au     6.68681804     1.97963839     6.82910365     3.02719480     2.18242826     3.20196274
Au     2.97781901     1.25077804     4.45037779    -0.47927505    -1.95873201     1.26873505
Au     0.06608612    -0.12659264     6.93594382    -1.25538495     3.65459362     2.78163675
Au     9.60038470     3.86387238     4.39120451     4.40146450    -1.61861330     5.71404939
Au     4.88722768     4.03192454     0.24652784    -0.27033703    -0.26642439     1.32605483
Au     6.42427819     1.92328220    14.04659029     2.83871975    -0.95241235    -0.19764716
Au     5.74979268     3.12733211     8.86266409     1.01592821    -0.56215152     5.42974112
Au     2.86207787     2.84582072    10.03806631     1.55504821    -0.31627598    -3.97617539
Au     7.52787139    -0.25229468    12.33315094    -4.16208240    -1.70195917    -2.22695169
Au    13.04402105     3.62809206     4.32183746    -0.80531173     3.98507214    -2.42956802
Au     2.60064548     1.25183912    12.11349166     0.48543659     0.12043042    -0.78505883
Au     9.98985256     0.89363258     9.08586956     1.04530847    -4.83346628     0.36971537
Au    10.87636676    -0.33900594    14.35803171    -1.62745094     0.41103026    -0.29103229
Au     5.69241003     1.13400960     4.77969652    -1.80232217    -0.12230664     0.10873743
Au     8.90861295     2.98573685     9.64477990    -3.09313521     4.28703933     1.21737042
Au     4.79908550     2.44570227     2.91560020     1.02208430     3.27655042    -3.87925191
Au     1.13103052     0.32592629     2.50049304     1.65994276    -1.26223000    -2.46498036
Au     2.48695196     2.79355782     1.77582597     0.56387214     1.11448975     1.31177112
Au     3.31054021     0.94603702    14.54490678     3.65391866    -1.31189882     0.08570194
Au     9.85102600     2.20824764     6.80243905     0.25887226     1.69022768     1.01908460
Au    11.40066517     1.43747166     4.52232377    -2.25929522     0.48925758     1.71224390
Au     8.34653919     4.59844223     7.29879972     1.47427925    -2.91800142    -0.91723507
Au     6.99396936     1.06772213     2.23118296     0.30258666     0.81608020    -0.62416164
Au     8.65448998     1.27786413     4.73778720    -1.08644759    -0.34300077    -3.49236688
Au    12.17630900     2.01874336    14.20621687    -0.75359776     1.20797642    -0.66391404
Au     7.08191466     0.79626979     9.58083161     1.05687582    -1.09795941    -0.52405338
Au     6.81990511     4.65148948     2.33835983    -5.32602706     2.57184183    -0.66686302
48
Lattice="11.18800 0.00000 -0.00000 2.82500 4.87500 -0.00000 -0.10400 -0.49000 14.64600" Properties=species:S:1:pos:R:3:force:R:3 pbc="T T T" energy=-45239.23311646657 virial="20.7816 -22.4970 18.0917 -22.4970 18.4219 21.4072 18.0917 21.4072 20.1826"
Ag     3.92618298     2.47784969     7.51131275    -1.85935418    -1.32392730    -1.10433911
Ag    11.30405233     1.77079771    11.68713363    -2.19690925     1.25949881    -0.03899078
Ag     9.76321487     0.86763117     2.18658564     0.52160848     0.89682903     0.32196966
Ag     5.65052682     1.81089573    11.48603441    -0.95799892     0.23769255    -0.02730880
Ag    11.46052769     3.23551563     9.02868191     1.34667708     0.42641483     0.16722499
Ag     8.41030121     0.14226639     0.01379058    -0.17799898     0.42899052     1.60835474
Ag     8.72194886     3.34825357     2.30761660     0.25370837    -4.80293502    -4.64075236
Ag     8.61629825     2.04332949    12.13149841     0.93174844     0.84059021    -0.03752377
Ag    12.66381352     4.32113379    11.49674553    -0.44846162     1.05423657     0.60750617
Ag    12.69246859     2.60489734     6.48994017    -1.32471450    -2.70530408     4.11143643
Ag     8.17812942    -0.16769539     6.76084121     1.03651092    -1.35863169     1.50088277
Ag     4.22141095     3.71233200     5.21648283     4.03332398    -0.51053763    -2.24129425
Ag     7.00359853     3.61194966     4.92297634    -0.75615747     0.99523691    -1.34116614
Ag     3.02467204     0.19857102     7.10934657    -3.46216159    -0.54791547    -2.46485185
Ag     4.19344497     0.29946653     9.37657699     1.41636620     2.89628298     4.43572184
Ag     3.89541256     3.71944884    12.22256867     2.26692097     0.52603081     1.14138033
Ag     1.42270265     0.56470659     9.78763568     0.13696181    -1.55020060    -1.67429466
Ag     9.65174603     2.18654301    14.63705644    -0.32941453    -2.19316617    -0.52680460
Au    11.30611091     3.46399606     2.40042659    -1.29746916    -1.29166932    -1.38120711
Au     8.37508062     4.33090991    14.58229706    -0.98567702     0.83142522     0.86428923
Au     7.11481144     4.20542372    12.29416632     0.17048019    -0.74474784    -1.67178623
Au     6.68568819     1.97967183     6.82868995     3.03252014     2.21317081     3.21290376
Au     2.97958098     1.25071853     4.44975497    -0.51568952    -1.93830205     1.29624105
Au     0.06296280    -0.12683867     6.93618717    -1.20449003     3.63385695     2.76891591
Au     9.59936541     3.86470784     4.39061260     4.43315371    -1.65707013     5.74099264
Au     4.88900943     4.03302424     0.24804793    -0.27307660    -0.29932985     1.31903386
Au     6.42503948     1.92147382    14.04713075     2.81958385    -0.91539902    -0.17967089
Au     5.75030671     3.12734453     8.86282187     1.04526940    -0.52967393     5.46238619
Au     2.86028991     2.84550794    10.03865769     1.57754816    -0.31700309    -3.95676128
Au     7.52639693    -0.25233527    12.33264568    -4.15049394    -1.73563863    -2.16827975
Au    13.04398549     3.62960961     4.32282812    -0.78632728     3.95973626    -2.47434423
Au     2.59996135     1.25248017    12.11462189     0.52722362     0.11876111    -0.80302666
Au     9.99231334     0.89476456     9.08724753     1.04222338    -4.82628330     0.34598178
Au    10.87680891    -0.34011681    14.35717690    -1.61900629     0.40570637    -0.29414785
Au     5.69461897     1.13477325     4.77891958    -1.83886315    -0.08731001     0.06234374
Au     8.90719994     2.98454094     9.64498218    -3.07081387     4.31856934     1.20020393
Au     4.79722554     2.44668333     2.91496537     1.07221760     3.26652397    -3.85447651
Au     1.13062082     0.32789071     2.50102429     1.67588432    -1.28600652    -2.50040941
Au     2.48707916     2.79319139     1.77579120     0.54408607     1.13300346     1.31111599
Au     3.30901408     0.94589303    14.54504915     3.68558176    -1.30460731     0.08669079
Au     9.85132982     2.20838663     6.80061287     0.26317261     1.70030299     1.03737556
Au    11.40010896     1.43620498     4.52170865    -2.25247755     0.52617997     1.75734517
Au     8.34602760     4.59778152     7.29829134     1.46489839    -2.92334298    -0.90601252
Au     6.99437067     1.06696770     2.23104030     0.27889003     0.82791331    -0.62075078
Au     8.65265396     1.27590644     4.73759224    -1.05606616    -0.30019463    -3.52557522
Au    12.17606852     2.01812575    14.20505753    -0.77514838     1.21917277    -0.64687444
Au     7.08272428     0.79648266     9.57844730     1.05040988    -1.11624779    -0.52487101
Au     6.82040764     4.65318004     2.33831319    -5.28693704     2.54533823    -0.67795156
48
Lattice="11.18800 0.00000 -0.00000 2.82500 4.87500 -0.00000 -0.10400 -0.49000 14.64600" Properties=species:S:1:pos:R:3:force:R:3 pbc="T T T" energy=-45239.260209287706 virial="20.7551 -22.3064 17.6490 -22.3064 18.4232 21.4380 17.6490 21.4380 20.1856"
Ag     3.92844231     2.47616641     7.51075576    -1.89598813    -1.29753040    -1.11483726
Ag    11.30471419     1.77030098    11.68639879    -2.22063729     1.27092250    -0.03696752
Ag     9.76277028     0.86668024     2.18510592     0.53979305     0.90950847     0.34134164
Ag     5.65361217     1.80863783    11.48716527    -0.97490137     0.24878398    -0.03704302
Ag    11.46371082     3.23438482     9.02915617     1.29586214     0.43759430     0.15279626
Ag     8.41136394     0.14119846     0.01616338    -0.21052179     0.42848926     1.52424976
Ag     8.72210298     3.34650233     2.30834579     0.20014758    -4.78124899    -4.65594778
Ag     8.61418864     2.04161253    12.13033583     0.95611906     0.85658499    -0.02823055
Ag    12.66207255     4.32273457    11.49539694    -0.41004231     1.03854353     0.62363784
Ag    12.69208296     2.60765497     6.48950062    -1.33417887    -2.75960279     4.11709610
Ag     8.17771396    -0.16533433     6.76001473     1.02943168    -1.40035653     1.54790760
Ag     4.22320144     3.71172514     5.21814087     3.99170235    -0.49165624    -2.22762602
Ag     7.00362154     3.61263509     4.92094890    -0.75796880     0.98049032    -1.31623835
Ag     3.02320618     0.19810590     7.11045393    -3.45665121    -0.54104658    -2.46678694
Ag     4.19353458     0.30262007     9.37726198     1.40891294     2.85803320     4.41302304
Ag     3.89886506     3.72042725    12.22321072     2.22541807     0.50330521     1.10548658
Ag     1.42269173     0.56219653     9.78916928     0.15220215    -1.55359183    -1.67935071
Ag     9.65129798     2.18686375    14.63759136    -0.33031266    -2.18756819    -0.54165693
Au    11.30677116     3.46388635     2.40008297    -1.31206084    -1.30643533    -1.35940891
Au     8.37433660     4.33196446    14.58291976    -0.96810562     0.80512514     0.88846591
Au     7.11559692     4.20519019    12.29642870     0.14827675    -0.73139259    -1.69302932
Au     6.68469943     1.97981431     6.82843127     3.03509442     2.24083703     3.21835315
Au     2.98133006     1.25056331     4.44919147    -0.55324063    -1.91164015     1.32276693
Au     0.05975820    -0.12690780     6.93656836    -1.14684595     3.60252553     2.74516541
Au     9.59855684     3.86546775     4.39029872     4.45405097    -1.69624198     5.74762048
Au     4.89079035     4.03411699     0.24964361    -0.27505756    -0.33419970     1.30907205
Au     6.42594475     1.91960766    14.04766620     2.79883998    -0.87568886    -0.16125986
Au     5.75087575     3.12733100     8.86324929     1.07030110    -0.49445091     5.48803697
Au     2.85856687     2.84517737    10.03905875     1.59860474    -0.31539461    -3.93016252
Au     7.52470802    -0.25246147    12.33203026    -4.13562563    -1.76804267    -2.10608476
Au    13.04391103     3.63133253     4.32370415    -0.76428165     3.92630940    -2.50551361
Au     2.59929831     1.25313160    12.11572064     0.56693853     0.11915626    -0.82139085
Au     9.99484273     0.89566729     9.08865225     1.03293718    -4.80520147     0.32561738
Au    10.87717460    -0.34121559    14.35630158    -1.60821147     0.39920432    -0.29776334
Au     5.69675311     1.13553800     4.77814020    -1.87330712    -0.05115060     0.01691416
Au     8.90562598     2.98354888     9.64524489    -3.04148973     4.33886306     1.17954037
Au     4.79540515     2.44783190     2.91413657     1.12410390     3.25177871    -3.82575041
Au     1.13029060     0.32980580     2.50143637     1.68882814    -1.30546249    -2.53056320
Au     2.48723400     2.79287808     1.77582063     0.52267362     1.14958441     1.30645740
Au     3.30765835     0.94568388    14.54519678     3.71189943    -1.29358460     0.08785721
Au     9.85164872     2.20861019     6.79882478     0.26439857     1.70795474     1.05486419
Au    11.39943809     1.43495522     4.52117557    -2.24142573     0.56209070     1.79859988
Au     8.34558442     4.59697244     7.29773482     1.44858883    -2.92378784    -0.89193164
Au     6.99478852     1.06624865     2.23086612     0.25328368     0.83684377    -0.61578625
Au     8.65075305     1.27392015     4.73722260    -1.02617907    -0.25708823    -3.55339703
Au    12.17578823     2.01756372    14.20385819    -0.79295559     1.22912626    -0.62896036
Au     7.08359126     0.79664216     9.57602035     1.04407020    -1.13356238    -0.52499208
Au     6.82065382     4.65500767     2.33823289    -5.23105963     2.51038385    -0.68829466
48
Lattice="11.18800 0.00000 -0.00000 2.82500 4.87500 -0.00000 -0.10400 -0.49000 14.64600" Properties=species:S:1:pos:R:3:force:R:3 pbc="T T T" energy=-45239.32149321266 virial="20.7183 -22.0994 17.0601 -22.0994 18.4155 21.4518 17.0601 21.4518 20.1740"
Ag     3.93052688     2.47437120     7.51010049    -1.92327132    -1.26767936    -1.12186030
Ag    11.30517608     1.76991898    11.68566240    -2.23939922     1.28080194    -0.03653078
Ag     9.76237498     0.86581283     2.18366021     0.55914239     0.91880739     0.36082606
Ag     5.65660310     1.80640751    11.48829014    -0.99038958     0.25943415    -0.04680714
Ag    11.46700217     3.23329579     9.02964296     1.24241405     0.44625940     0.13980257
Ag     8.41240534     0.14017134     0.01866673    -0.24512223     0.42713208     1.43649311
Ag     8.72227462     3.34432809     2.30865729     0.14064020    -4.74258385    -4.64868649
Ag     8.61216946     2.03997618    12.12917349     0.97831698     0.86969778    -0.01875529
Ag    12.66029907     4.32442433    11.49410727    -0.36976120     1.01997070     0.63888891
Ag    12.69157905     2.61015951     6.48942994    -1.34019385    -2.80684846     4.10994769
Ag     8.17739146    -0.16310398     6.75932851     1.02286699    -1.43716890     1.59182537
Ag     4.22534430     3.71107580     5.21959596     3.93747859    -0.46930986    -2.20576754
Ag     7.00357677     3.61340648     4.91880867    -0.75705695     0.96310204    -1.29117091
Ag     3.02143497     0.19759355     7.11133828    -3.44279777    -0.53714651    -2.45948939
Ag     4.19374985     0.30602146     9.37833961     1.39850283     2.81514435     4.37905411
Ag     3.90250818     3.72144829    12.22395002     2.18108240     0.47996683     1.06748037
Ag     1.42269443     0.55955364     9.79054920     0.16733758    -1.55470427    -1.68143137
Ag     9.65082148     2.18698829    14.63807661    -0.33157829    -2.17858155    -0.55867753
Au    11.30736565     3.46371298     2.39967365    -1.32625996    -1.31989919    -1.33723035
Au     8.37354699     4.33305590    14.58358445    -0.94835048     0.77567795     0.91220759
Au     7.11638778     4.20492144    12.29860288     0.12618846    -0.71829541    -1.71348314
Au     6.68386152     1.98006608     6.82833068     3.03486061     2.26500493     3.21818954
Au     2.98304791     1.25031493     4.44869402    -0.59143389    -1.87909564     1.34800459
Au     0.05650509    -0.12680051     6.93708295    -1.08329442     3.56103170     2.71079624
Au     9.59796811     3.86614286     4.39026680     4.46376040    -1.73579474     5.73359944
Au     4.89255357     4.03519080     0.25129955    -0.27634511    -0.37060842     1.29626206
Au     6.42698481     1.91770309    14.04819248     2.77678557    -0.83375492    -0.14265025
Au     5.75149581     3.12729331     8.86394421     1.09053870    -0.45705862     5.50626196
Au     2.85692614     2.84483216    10.03926656     1.61798642    -0.31153274    -3.89684693
Au     7.52282078    -0.25267388    12.33131325    -4.11763319    -1.79876074    -2.04137216
Au    13.04379935     3.63324347     4.32445551    -0.73954347     3.88511383    -2.52251524
Au     2.59866458     1.25378730    12.11677658     0.60408391     0.12160731    -0.83993963
Au     9.99741667     0.89633277     9.09006957     1.01744706    -4.77046765     0.30886880
Au    10.87746073    -0.34229222    14.35541378    -1.59519299     0.39161350    -0.30184081
Au     5.69879054     1.13629843     4.77736351    -1.90518604    -0.01440168    -0.02684015
Au     8.90390695     2.98277147     9.64556469    -3.00551039     4.34774595     1.15565334
Au     4.79364408     2.44913685     2.91312255     1.17711868     3.23255799    -3.79343740
Au     1.13004380     0.33165246     2.50172366     1.69857536    -1.32032753    -2.55495046
Au     2.48741405     2.79262175     1.77591391     0.49985809     1.16405696     1.29783459
Au     3.30648745     0.94541194    14.54534837     3.73254431    -1.27891224     0.08918129
Au     9.85197980     2.20891678     6.79709256     0.26251246     1.71309636     1.07136066
Au    11.39865914     1.43373592     4.52073175    -2.22625837     0.59650461     1.83536791
Au     8.34521316     4.59602222     7.29713599     1.42564603    -2.91929402    -0.87522103
Au     6.99521778     1.06557224     2.23066223     0.22604523     0.84276318    -0.60931562
Au     8.64880645     1.27192600     4.73667997    -0.99713644    -0.21420983    -3.57537120
Au    12.17546982     2.01706315    14.20263093    -0.80677297     1.23769551    -0.61036612
Au     7.08450727     0.79674582     9.57357347     1.03791804    -1.14974453    -0.52440557
Au     6.82064348     4.65695378     2.33811910    -5.15946220     2.46756822    -0.69776807
48
Lattice="11.18800 0.00000 -0.00000 2.82500 4.87500 -0.00000 -0.10400 -0.49000 14.64600" Properties=species:S:1:pos:R:3:force:R:3 pbc="T T T" energy=-45239.41630182919 virial="20.6715 -21.8775 16.3311 -21.8775 18.3989 21.4490 16.3311 21.4490 20.1480"
Ag     3.93243291     2.47246864     7.50934717    -1.94113786    -1.23451490    -1.12528066
Ag    11.30543648     1.76965261    11.68492515    -2.25313377     1.28910819    -0.03767025
Ag     9.76203089     0.86503030     2.18225143     0.57958355     0.92466390     0.38036695
Ag     5.65949583     1.80420763    11.48940717    -1.00447654     0.26967637    -0.05658079
Ag    11.47039375     3.23225016     9.03014064     1.18654703     0.45245451     0.12823397
Ag     8.41342146     0.13918572     0.02129019    -0.28158174     0.42491969     1.34568263
Ag     8.72245826     3.34173742     2.30855263     0.07592306    -4.68725832    -4.61903673
Ag     8.61024423     2.03842282    12.12801326     0.99830853     0.87985459    -0.00910031
Ag    12.65849836     4.32619966    11.49287886    -0.32791209     0.99861346     0.65328414
Ag    12.69095710     2.61240523     6.48972651    -1.34257965    -2.84679664     4.09000479
Ag     8.17716135    -0.16100924     6.75878668     1.01684026    -1.46888075     1.63243187
Ag     4.22783180     3.71038667     5.22084932     3.87107631    -0.44373756    -2.17611876
Ag     7.00346455     3.61426136     4.91656012    -0.75335798     0.94317109    -1.26610514
Ag     3.01936209     0.19703490     7.11200011    -3.42078740    -0.53611577    -2.44308563
Ag     4.19408930     0.30966316     9.37980478     1.38527200     2.76784100     4.33420148
Ag     3.90633420     3.72250887    12.22478223     2.13415165     0.45610420     1.02762901
Ag     1.42271206     0.55678052     9.79177447     0.18233315    -1.55349899    -1.68049223
Ag     9.65031693     2.18691787    14.63851040    -0.33316930    -2.16630326    -0.57783818
Au    11.30789335     3.46347563     2.39920027    -1.34008446    -1.33201379    -1.31474083
Au     8.37271356     4.33418172    14.58429159    -0.92652086     0.74319229     0.93544096
Au     7.11718225     4.20461843    12.30068617     0.10428349    -0.70548590    -1.73309679
Au     6.68317477     1.98042781     6.82838779     3.03180991     2.28552609     3.21239188
Au     2.98473123     1.24997546     4.44826412    -0.63008067    -1.84084526     1.37187337
Au     0.05320961    -0.12651941     6.93772844    -1.01424621     3.50963038     2.66611731
Au     9.59759961     3.86673088     4.39051540     4.46225123    -1.77569740     5.69905392
Au     4.89429754     4.03624298     0.25301348    -0.27702048    -0.40840427     1.28063117
Au     6.42815729     1.91576395    14.04871007     2.75354570    -0.78975541    -0.12392565
Au     5.75216718     3.12723339     8.86490616     1.10579472    -0.41780462     5.51695885
Au     2.85536989     2.84447283    10.03928311     1.63565289    -0.30551309    -3.85712232
Au     7.52073832    -0.25297357    12.33049875    -4.09656407    -1.82767102    -1.97462355
Au    13.04365187     3.63533818     4.32508106    -0.71232482     3.83629003    -2.52528655
Au     2.59806246     1.25444682    12.11778801     0.63853505     0.12608421    -0.85860983
Au    10.00003196     0.89676277     9.09149737     0.99575582    -4.72232254     0.29576544
Au    10.87766792    -0.34334619    14.35451411    -1.58000519     0.38297961    -0.30636956
Au     5.70072814     1.13705568     4.77658804    -1.93434927     0.02266110    -0.06862247
Au     8.90204654     2.98220922     9.64593996    -2.96307793     4.34538460     1.12867597
Au     4.79194631     2.45059563     2.91192632     1.23106273     3.20900870    -3.75768633
Au     1.12988087     0.33342853     2.50188506     1.70506218    -1.33054346    -2.57338897
Au     2.48761796     2.79242319     1.77607037     0.47569087     1.17640556     1.28529182
Au     3.30550291     0.94507834    14.54550382     3.74746165    -1.26061519     0.09063746
Au     9.85232264     2.20930616     6.79541837     0.25751287     1.71572057     1.08682363
Au    11.39777386     1.43254977     4.52037915    -2.20703391     0.62926666     1.86741171
Au     8.34491283     4.59493233     7.29649630     1.39631693    -2.90987001    -0.85602249
Au     6.99565669     1.06493926     2.23042920     0.19725023     0.84567455    -0.60135681
Au     8.64681743     1.26992788     4.73596426    -0.96901977    -0.17169251    -3.59133048
Au    12.17511298     2.01662475    14.20137782    -0.81655576     1.24483621    -0.59114698
Au     7.08547105     0.79679291     9.57110892     1.03195581    -1.16479350    -0.52311342
Au     6.82038084     4.65901423     2.33797156    -5.07295531     2.41730917    -0.70636223
48
Lattice="11.18800 0.00000 -0.00000 2.82500 4.87500 -0.00000 -0.10400 -0.49000 14.64600" Properties=species:S:1:pos:R:3:force:R:3 pbc="T T T" energy=-45239.544135789365 virial="20.6149 -21.6413 15.4638 -21.6413 18.3737 21.4307 15.4638 21.4307 20.1079"
Ag     3.93416729     2.47045352     7.50849232    -1.94968228    -1.19803102    -1.12502890
Ag    11.30549553     1.76950131    11.68418372    -2.26186760     1.29585791    -0.04037363
Ag     9.76173830     0.86432967     2.18087516     0.60115086     0.92705591     0.39999535
Ag     5.66230183     1.80202949    11.49052035    -1.01724532     0.27959368    -0.06638727
Ag    11.47389521     3.23124388     9.03065035     1.12817312     0.45625947     0.11800508
Ag     8.41441348     0.13823705     0.02403696    -0.31986850     0.42184311     1.25193945
Ag     8.72264890     3.33872442     2.30803448     0.00637931    -4.61540129    -4.56712447
Ag     8.60840625     2.03694652    12.12685095     1.01616843     0.88704586     0.00077442
Ag    12.65666633     4.32806631    11.49170757    -0.28458586     0.97447539     0.66692517
Ag    12.69021432     2.61439863     6.49038945    -1.34120297    -2.87947018     4.05728009
Ag     8.17702200    -0.15904368     6.75839035     1.01133039    -1.49549127     1.66973932
Ag     4.23066846     3.70965707     5.22190930     3.79273574    -0.41517487    -2.13915287
Ag     7.00328478     3.61520159     4.91419581    -0.74678104     0.92069517    -1.24104292
Ag     3.01698080     0.19642766     7.11244402    -3.39075058    -0.53782633    -2.41769257
Ag     4.19455311     0.31355654     9.38165945     1.36930898     2.71614061     4.27869591
Ag     3.91035540     3.72361143    12.22570731     2.08461200     0.43167932     0.98599764
Ag     1.42274603     0.55386535     9.79285068     0.19723733    -1.54993777    -1.67650795
Ag     9.64978200     2.18665351    14.63889294    -0.33504318    -2.15077820    -0.59920805
Au    11.30835593     3.46317273     2.39866193    -1.35362987    -1.34279957    -1.29188831
Au     8.37183382     4.33534520    14.58504535    -0.90261715     0.70761538     0.95821445
Au     7.11798268     4.20428052    12.30268679     0.08251962    -0.69292788    -1.75191400
Au     6.68263586     1.98090194     6.82860242     3.02592407     2.30237256     3.20093634
Au     2.98638552     1.24954540     4.44790100    -0.66919870    -1.79687490     1.39441693
Au     0.04986083    -0.12606599     6.93850531    -0.93991097     3.44844477     2.61142266
Au     9.59744941     3.86723251     4.39104359     4.44962794    -1.81600834     5.64417526
Au     4.89602983     4.03727629     0.25479205    -0.27716516    -0.44763051     1.26212623
Au     6.42946600     1.91378399    14.04922216     2.72912505    -0.74362267    -0.10506875
Au     5.75289348     3.12715293     8.86613955     1.11599682    -0.37679599     5.52010877
Au     2.85389210     2.84409814    10.03911063     1.65165432    -0.29740998    -3.81110266
Au     7.51845279    -0.25336316    12.32958658    -4.07234871    -1.85481004    -1.90596553
Au    13.04346931     3.63762320     4.32558351    -0.68270013     3.77976678    -2.51391633
Au     2.59749097     1.25511323    12.11875845     0.67035945     0.13257679    -0.87742757
Au    10.00269892     0.89696179     9.09294122     0.96781203    -4.66086261     0.28624450
Au    10.87779789    -0.34438254    14.35359844    -1.56262263     0.37330099    -0.31136315
Au     5.70257306     1.13781486     4.77580836    -1.96079289     0.05995008    -0.10837082
Au     8.90003887     2.98185933     9.64637096    -2.91421422     4.33201158     1.09863827
Au     4.79030704     2.45221328     2.91054461     1.28602736     3.18115775    -3.71846312
Au     1.12980134     0.33514133     2.50192051     1.70826556    -1.33611588    -2.58581061
Au     2.48784540     2.79228207     1.77628998     0.45009772     1.18668798     1.26882772
Au     3.30470097     0.94468259    14.54566388     3.75669054    -1.23863388     0.09220058
Au     9.85267847     2.20978005     6.79379563     0.24939855     1.71584411     1.10131906
Au    11.39677944     1.43139317     4.52011768    -2.18372849     0.66040282     1.89467814
Au     8.34468061     4.59369863     7.29581397     1.36075917    -2.89548690    -0.83441001
Au     6.99610575     1.06434703     2.23016644     0.16683305     0.84560493    -0.59188976
Au     8.64477874     1.26791916     4.73507174    -0.94179781    -0.12951912    -3.60119525
Au    12.17471574     2.01624688    14.20009437    -0.82232615     1.25054853    -0.57125335
Au     7.08648646     0.79678296     9.56861604     1.02615354    -1.17878297    -0.52110940
Au     6.81986928     4.66119540     2.33778924    -4.97200005     2.35982292    -0.71412976
48
Lattice="11.18800 0.00000 -0.00000 2.82500 4.87500 -0.00000 -0.10400 -0.49000 14.64600" Properties=species:S:1:pos:R:3:force:R:3 pbc="T T T" energy=-45239.70407331028 virial="20.5487 -21.3922 14.4646 -21.3922 18.3398 21.3976 14.4646 21.3976 20.0538"
Ag     3.93573187     2.46832548     7.50753432    -1.94897227    -1.15832218    -1.12105551
Ag    11.30535213     1.76946567    11.68343661    -2.26558652     1.30104543    -0.04462261
Ag     9.76149874     0.86371012     2.17953088     0.62383353     0.92592298     0.41970025
Ag     5.66502452     1.79987032    11.49163068    -1.02873055     0.28923617    -0.07621530
Ag    11.47750748     3.23027566     9.03117204     1.06734877     0.45774309     0.10906792
Ag     8.41537962     0.13732352     0.02690351    -0.35985152     0.41789406     1.15560858
Ag     8.72284064     3.33528962     2.30710579    -0.06747475    -4.52734288    -4.49328758
Ag     8.60665417     2.03554556    12.12568548     1.03191103     0.89123673     0.01088468
Ag    12.65480371     4.33002544    11.49059276    -0.23999072     0.94760451     0.67988162
Ag    12.68934933     2.61613965     6.49141765    -1.33595485    -2.90481884     4.01189903
Ag     8.17697284    -0.15720659     6.75814248     1.00634130    -1.51690952     1.70365093
Ag     4.23385275     3.70888825     5.22278063     3.70281866    -0.38386306    -2.09532063
Ag     7.00303761     3.61622690     4.91171374    -0.73723530     0.89571663    -1.21603621
Ag     3.01428916     0.19577055     7.11267260    -3.35289701    -0.54214089    -2.38350776
Ag     4.19514085     0.31770407     9.38390253     1.35073818     2.66016499     4.21290975