ITEM: TIMESTEP
100
ITEM: NUMBER OF ATOMS
64
ITEM: BOX BOUNDS xy xz yz pp pp pp
-2.1577784230499999e-01 1.1187578062354000e+01 -2.1577784230499999e-01
-5.8671844649000000e-02 1.1223192087773000e+01 5.3801181254999997e-02
0.0000000000000000e+00 1.0992593606461000e+01 -5.8671844649000000e-02
ITEM: ATOMS id type x y z fx fy fz
1 1 1.47938 3.78054 1.35163 -0.43927 0.665557 -0.708836
2 1 1.58358 9.67675 6.97738 -0.524951 0.399714 0.13714
3 1 6.87158 4.08747 1.30396 0.643354 0.361751 -0.0442743
4 1 6.81763 3.97979 6.74262 0.786498 0.341961 0.368883
5 1 6.7601 9.81714 1.02687 0.534102 0.706218 1.37855
6 1 6.72729 9.58725 6.62971 0.157005 0.843155 0.519274
7 1 10.8675 10.9954 2.63471 0.491279 0.530926 -1.03638
8 1 -0.138739 11.0862 8.05328 -0.939754 -1.0877 -1.03145
9 1 0.227702 5.06722 2.93167 -0.667156 0.414993 -1.38863
10 1 0.23726 5.19577 8.40117 -0.721385 0.323087 -0.300581
11 1 5.5378 11.2915 2.50655 0.384864 -0.786157 -0.742619
12 1 5.36371 10.9703 8.00631 0.202244 0.526546 0.637875
13 1 5.39987 5.46244 2.61313 0.00651792 -0.174176 0.243959
14 1 1.42585 3.95289 6.82626 -0.234425 -0.838785 -0.218733
15 1 1.32153 9.60022 1.1967 -0.627407 0.670454 1.09022
16 1 5.43402 5.35629 8.14477 0.800376 -0.569707 0.27064
17 1 1.22213 6.84287 3.99253 0.634054 -1.76241 1.15565
18 1 1.37602 6.71752 9.72996 0.376169 -0.00340003 -0.805767
19 1 7.09945 1.21805 3.95677 -0.736114 1.30313 -0.286583
20 1 6.95905 1.22718 9.46545 0.203225 0.0337185 -0.827128
21 1 6.69922 6.85669 4.12068 1.00713 -0.665862 -2.29323
22 1 6.82087 6.80616 9.4944 0.105042 -0.707268 0.419219
23 1 0.117947 2.4752 10.7653 -1.00838 1.13357 0.455024
24 1 0.00045523 2.5505 5.36059 0.643963 0.616663 0.535978
25 1 -0.0302924 8.24143 10.8804 -1.12671 -0.445531 -0.454164
26 1 10.7298 8.05438 5.054 -1.15178 -0.19756 0.415895
27 1 5.61803 2.68817 10.861 0.827592 -1.02106 -0.039528
28 1 5.58663 2.56872 5.36149 -0.591746 -0.149664 -0.654535
29 1 1.40546 1.26685 3.97266 -0.0448181 -1.13618 -0.453065
30 1 1.4071 1.01255 9.44317 0.945941 1.17812 0.183475
31 1 5.51448 8.27531 10.884 -1.83994 -0.549993 -0.756373
32 1 5.39319 8.2037 5.3062 -2.3174 0.190341 1.10989
33 1 4.04991 3.95277 3.9678 1.60302 0.304394 0.66632
34 1 3.97014 9.60314 9.44136 1.67291 -0.943596 -0.364549
35 1 9.76623 3.90625 4.1127 -0.811439 0.766857 0.0179031
36 1 9.66615 4.04515 9.52319 1.41594 -0.948793 0.198484
37 1 9.4268 9.59251 3.92863 0.539997 0.430484 -0.75238
38 1 9.70008 9.43509 9.33728 0.0962063 1.70886 0.533067
39 1 2.71276 10.9431 10.7286 -0.491378 0.668189 1.66022
40 1 2.49351 11.0103 5.31077 0.105874 0.359083 0.707503
41 1 2.77509 5.24042 10.9453 0.0880533 0.0161337 -0.108542
42 1 2.69557 5.30778 5.36084 -0.46255 1.08172 0.0116214
43 1 8.31374 11.1249 10.6702 -0.515932 -1.4445 -0.241721
44 1 8.12934 11.0425 5.24163 0.249625 -0.513023 1.1018
45 1 8.29006 5.41957 10.8433 -1.0633 -0.522105 -0.563305
46 1 4.19918 3.85962 9.52157 -0.937041 0.76439 -0.590004
47 1 3.44627 9.29725 4.18975 1.57894 -0.221864 0.689474
48 1 8.12883 5.37627 5.27681 -0.0417382 -0.820159 -0.177016
49 1 4.01162 6.82098 1.2097 0.498953 0.218056 0.596409
50 1 4.12712 6.65083 6.80385 -0.0845892 0.928303 -1.1026
51 1 9.67581 1.30565 1.11686 1.27089 -0.643414 0.966053
52 1 9.65509 1.30838 6.61278 0.70074 -1.40119 1.03797
53 1 9.06973 7.29095 0.799883 1.80513 0.105176 1.25682
54 1 9.15075 6.99533 6.40158 0.726576 0.415362 1.07626
55 1 2.97001 2.53668 2.57314 -1.0197 -1.24427 0.00884493
56 1 2.84946 2.43408 8.05305 -0.54312 0.802724 0.962054
57 1 2.48931 8.03444 2.66506 0.308961 0.488337 -1.96878
58 1 2.82878 8.02776 8.20122 -1.20592 0.143228 0.214569
59 1 8.4512 2.69489 2.57774 -0.778546 -0.169235 -0.0983492
60 1 8.38491 2.64243 8.08184 -0.842851 0.338881 -0.0533917
61 1 4.34499 1.20263 1.12105 -1.11959 0.213546 0.0293638
62 1 4.14171 1.12732 6.68753 0.906941 -0.342358 -0.894268
63 1 7.92267 8.38319 2.52646 -0.0750007 -0.261612 0.304258
64 1 8.01751 8.28878 8.16482 0.645839 -0.422031 -2.00388
