ITEM: TIMESTEP
160
ITEM: NUMBER OF ATOMS
64
ITEM: BOX BOUNDS xy xz yz pp pp pp
-2.1577784230499999e-01 1.1187578062354000e+01 -2.1577784230499999e-01
-5.8671844649000000e-02 1.1223192087773000e+01 5.3801181254999997e-02
0.0000000000000000e+00 1.0992593606461000e+01 -5.8671844649000000e-02
ITEM: ATOMS id type x y z fx fy fz
1 1 1.27681 3.87754 1.15708 1.8089 0.0560243 0.0697542
2 1 1.56438 9.65149 6.70263 5.35747 -3.74596 -3.54429
3 1 6.95691 4.04814 1.15275 -0.38137 -0.177563 1.40414
4 1 7.13226 3.94418 6.58598 -0.953555 0.159322 0.0144161
5 1 6.69749 9.65666 1.33258 -1.05518 0.0676083 -1.08421
6 1 6.84708 9.9463 6.84126 -1.09723 -2.10456 -0.13577
7 1 10.8096 11.0404 2.7688 -0.295023 -0.134175 0.69758
8 1 10.8146 0.134602 8.39181 1.09344 -0.452307 2.03121
9 1 0.116265 4.82308 2.76165 -0.104203 1.46166 -0.305552
10 1 0.324287 5.14738 8.22208 -1.19165 -0.259205 -0.27074
11 1 5.28641 11.105 2.51733 1.40658 0.460497 -0.348364
12 1 5.38049 11.0177 8.23987 -0.271252 1.00618 -0.373758
13 1 5.45467 5.30079 2.42083 -0.114432 0.110096 -0.484089
14 1 1.42906 3.93513 6.66677 0.773466 0.958106 0.0728247
15 1 1.40546 9.39193 1.19881 -0.657677 0.0160746 -0.691872
16 1 6.10041 5.13442 8.29508 -1.50742 -0.764601 -0.69008
17 1 1.16183 6.57325 3.90161 -0.324821 0.292802 -1.11461
18 1 1.24812 6.81899 9.39636 0.764498 -0.0475851 0.225207
19 1 6.86999 1.11396 3.98838 -0.0125797 -0.141124 0.218853
20 1 6.87757 1.21788 9.55018 0.793315 0.223526 0.273625
21 1 7.24436 6.24749 3.27478 0.483778 0.304531 0.638792
22 1 6.95816 6.74188 9.4669 0.0379343 2.21962 -0.280546
23 1 11.1317 2.57191 10.7763 -0.170543 -1.33775 1.51857
24 1 0.0971964 2.54748 5.41961 -0.53136 -1.01763 -0.473028
25 1 11.0181 8.1225 10.7427 0.237282 0.768737 0.364591
26 1 10.8442 7.95174 4.92521 -1.93745 -0.531814 -0.156964
27 1 5.43058 2.56098 10.937 0.173818 0.550361 -1.09821
28 1 5.52637 2.58952 5.31268 0.479817 0.0270435 1.08512
29 1 1.47929 1.18078 3.92631 -0.348069 -0.743491 1.35984
30 1 1.55563 1.30272 9.60123 -1.13427 -0.909349 -0.287828
31 1 5.28147 8.13696 10.7074 2.00778 -0.904722 1.02404
32 1 5.61083 8.17444 5.6722 -5.10996 2.04579 -0.649241
33 1 4.28118 4.13443 4.06712 -1.69233 -0.157537 -0.459201
34 1 4.07007 9.63656 9.55098 -1.70649 0.796965 -0.436604
35 1 9.79042 3.8081 4.01197 -0.354584 -1.16279 0.595404
36 1 9.83228 3.96559 9.54948 -0.334729 -0.0242593 -1.40076
37 1 9.36615 9.41677 4.00235 0.611222 0.739517 -0.929292
38 1 9.52017 9.59546 9.64655 0.43802 0.388859 -1.25561
39 1 2.61271 11.0908 0.0923405 -0.335939 -0.963874 -1.89013
40 1 2.59048 10.9789 5.56221 1.54291 -1.99211 -0.703949
41 1 2.62508 5.39931 10.8084 0.47876 0.449351 0.252191
42 1 2.55364 5.59336 5.19396 1.2204 -0.900614 1.62575
43 1 8.08767 10.9583 10.8926 0.144269 0.6002 0.447483
44 1 8.17852 10.9687 5.32682 -0.306775 0.647061 -0.451315
45 1 8.2654 5.29456 10.5992 -0.112438 0.90731 0.309648
46 1 4.17542 4.13058 9.42237 1.16638 -0.193891 0.956714
47 1 3.67376 9.26357 4.58438 -1.5616 -1.39772 4.00176
48 1 8.49781 5.27576 5.17682 -1.06349 0.598557 -0.00698874
49 1 4.0015 6.87378 1.23102 0.1015 -0.93561 -0.147733
50 1 3.04245 7.93701 6.03324 1.08054 4.33392 0.690589
51 1 9.79954 1.10952 1.29732 -0.907301 0.590153 -0.719053
52 1 9.78028 1.06618 6.71526 -1.06572 2.03938 -0.557362
53 1 9.33295 7.05178 0.935903 0.61101 -0.834794 -0.465608
54 1 9.39564 7.05715 6.404 -0.0634769 -0.16475 -0.0879085
55 1 2.79828 2.61837 2.62103 -0.00685649 0.999732 0.564418
56 1 2.75226 2.81291 8.20663 0.612838 -1.20992 -1.0404
57 1 2.54742 8.01786 2.69725 0.781345 0.671707 0.919396
58 1 2.46929 8.42444 8.1122 0.981171 -0.297371 0.579075
59 1 8.30557 2.41696 2.6988 0.598545 0.719591 -0.98589
60 1 8.31128 2.64627 8.08793 0.902115 -1.04513 0.00308978
61 1 4.10001 1.2237 1.3361 0.742063 0.372901 -0.0041681
62 1 4.21162 1.27969 6.92933 -0.0640549 -0.0844315 -0.707293
63 1 8.13956 8.20955 2.36153 -0.364603 -0.0679624 1.3491
64 1 8.21324 8.38572 7.9896 -0.292712 -0.878578 0.945246
