128
Lattice="10.946 0.000 0.000 0.000 10.948 0.000 0.000 0.000 21.844" Properties=species:S:1:pos:R:3:forces:R:3 energy=-687.86364746 virial="-6.37823915 -5.26174831 0.00256232 -5.26174831 -7.18018913 6.25132227 0.00256232 6.25132227 -4.48616695"
Si     1.33404322     4.22781148     1.35823177     0.12285545    -0.38170922    -0.21226482
Si     1.30878296     4.19775671     6.69514765     0.23257998    -0.24292222     0.33398628
Si     1.22298800     9.59146330     1.55883631     0.33647430    -0.44583839    -0.89135098
Si     1.27570238     9.52142505     6.78113500     0.28453323     0.53582919     0.04193288
Si     6.76459237     4.05905180     1.44177971     0.37861243     0.10777791    -0.14037046
Si     6.92311687     4.10319908     6.68423403    -0.06844214    -0.05426517     0.53370965
Si     6.70351517     9.65681305     1.32965848     0.68442428    -0.51422143    -0.53187704
Si     6.84364213     9.56791065     6.87427882    -0.40702522    -0.18533702    -0.37973970
Si    10.83655190    11.04124930     2.77229125     0.01354309    -0.10755720    -0.20298871
Si    10.94370010    10.98235453     8.12758759    -0.10720626    -0.04704682     0.23055339
Si     0.03700705     5.47028710     2.81860668    -0.69530052     0.05968541    -0.52519548
Si     0.07341600     5.50339474     8.20170694    -0.53460860     0.19407040    -0.40995771
Si     5.34225064    -0.12257259     2.71582661     0.12118851     0.47113883     0.56399000
Si     5.37355743    10.94064750     8.13732355     0.16388272    -0.23995861     0.37430793
Si     5.51316959     5.47071584     2.87889099    -0.16552427    -0.00261189    -0.77491474
Si     5.54194305     5.50516242     8.09524984    -0.03352858    -0.19576026     0.15898979
Si     1.32842275     1.42237644     4.03771699     0.12232912    -0.05817285     0.33498976
Si     1.33855704     1.55004774     9.42158618     0.25986308    -0.56444842     0.06376412
Si     1.35190129     6.90006017     4.06847273    -0.15397505    -0.22407714     0.32373670
Si     1.42270071     6.82743945     9.55379926    -0.06817189     0.16076949    -0.00419598
Si     6.84078438     1.21094537     3.97075817    -0.17894709     0.30346802     0.34650549
Si     6.83223657     1.33085854     9.42196015     0.24923998     0.23419362     0.46306804
Si     6.94991101     6.96093524     3.96617971    -0.20550993    -0.28452709     0.36526233
Si     6.86126631     6.78980335     9.62234003    -0.13399994     0.16352394    -0.35344243
Si    -0.02168778     2.79473545    -0.00181295     0.40504459    -0.10378410     0.31760255
Si    -0.04692678     2.78409208     5.35682718    -0.04936763    -0.04269777     0.27204937
Si    -0.05949738     8.24470260    10.80212796     0.30497119     0.02123567     0.31487831
Si    10.83978057     8.27286537     5.37066928     0.24302456    -0.17637241    -0.08693813
Si     5.36218870     2.71275857    21.98207425     0.20871854    -0.35954130    -0.23453096
Si     5.58382548     2.64264822     5.35949676    -0.56249869     0.20290866     0.39286816
Si     5.43052835     8.20839453    10.92832289    -0.03178075    -0.15285921    -0.01899507
Si     5.50472399     8.19030880     5.38568593    -0.01375297     0.30652374     0.30125254
Si     4.11569183     4.03272003     4.09792957     0.14170772     0.22822367     0.03789436
Si     4.27259016     4.11223223     9.55876478    -0.28372204    -0.06398616    -0.08589628
Si     4.00923165     9.54925266     4.15349346     0.02383727    -0.08543880    -0.16412047
Si     3.97768461     9.53144650     9.57149606     0.65143001     0.46654534    -0.25124463
Si     9.43542355     4.10122295     4.04696411     0.82617486     0.21017435     0.11856558
Si     9.65511839     4.15997379     9.58148984    -0.16553879    -0.47733679    -0.36467567
Si     9.44644062     9.54911079     3.92349068     0.31767702     0.29090288     0.65545225
Si     9.48049005     9.67218926     9.53997877     0.41091678    -0.32379094    -0.34858409
Si     2.64944962    -0.06479848     0.20186977     0.06627195     0.24517697    -0.44907114
Si     2.66441665    11.00080652     5.50302727     0.00589971    -0.11819942    -0.22440103
Si     2.82212500     5.48156366     0.00766556    -0.63449514     0.20815772     0.03491285
Si     2.72380100     5.45587913     5.33800071     0.17601782     0.38369805     0.42401141
Si     8.17512676    11.04627727     0.05104499     0.37095463    -1.13905060     0.13396454
Si     8.14210874    -0.06950741     5.42865148     0.36114991     0.07522430    -0.06833213
Si     8.21227458     5.30957916    -0.03495775    -0.33270282     0.48688138     0.28676564
Si     8.25121187     5.57029201     5.40899537    -0.29107022    -0.09899569    -0.08507209
Si     4.01596804     1.31823446     1.50515405    -0.11476770     0.38816732    -0.39304435
Si     4.07330081     1.43335450     6.84364459     0.07926428     0.01697508    -0.45756316
Si     4.15355934     6.78623325     1.39985866     0.06981157     0.21561170     0.06648512
Si     4.09357655     6.86694400     6.73764450     0.05036398    -0.23526919     0.21123101
Si     9.55427624     1.45347424     1.30679247     0.20853032    -0.28584608     0.34089488
Si     9.61346636     1.33497855     6.72324089    -0.26906788     0.11925677    -0.02507706
Si     9.62143777     6.72025814     1.26669551    -0.19152060     0.13598318     0.20312795
Si     9.58152241     6.91985865     6.78603440     0.22362457    -0.49241027     0.28455216
Si     2.65727177     2.85341982     2.70057319     0.20794691    -0.54250044     0.23727652
Si     2.75675943     2.95869962     8.11524278     0.03603978    -0.59852815     0.10819711
Si     2.70476870     8.14425161     2.69934102     0.19640797     0.48913896     0.21460380
Si     2.69630315     8.23041310     8.15147474     0.03329556    -0.38025171    -0.22012778
Si     8.20778472     2.66594030     2.72421640    -0.52556902     0.26253611    -0.13151155
Si     8.32419468     2.71948584     8.12786527    -0.46516633     0.29519013     0.07128448
Si     8.23359523     8.25928441     2.42299914    -0.26825345    -0.39686188     0.74778402
Si     8.19009874     8.14921776     8.18409133    -0.06670606     0.46790546     0.34949648
Si     1.34932437     4.22924299    12.30423587    -0.11213321    -0.39090127    -0.17924486
Si     1.38250229     4.12914652    17.82084568     0.34328228    -0.03288614    -0.30849451
Si     1.31152641     9.61750402    12.18245341     0.21180995    -0.16876943     0.23211810
Si     1.33513589     9.52367954    17.81188549     0.27649853     0.65027153    -0.01433850
Si     6.89823313     3.97760094    12.40101324     0.06732297     0.60784948    -0.57155812
Si     6.87278064     4.16630929    17.91354713     0.19737956    -0.16530071    -0.92827439
Si     6.82428933     9.49656464    12.29883128     0.45077109     0.54368091    -0.04139152
Si     6.89851793     9.45678609    17.78899424     0.02154082     0.04720435    -0.24037266
Si    11.01012953    10.90340929    13.69855114    -0.16117832     0.26643056    -0.14465262
Si    10.96222136    10.98819877    19.23074956    -0.10760310    -0.33207706    -0.34308928
Si     0.01868945     5.60471231    13.73049185     0.07202227    -0.33588952    -0.43145633
Si     0.10371918     5.52274497    19.15674780    -0.43396968    -0.31456006     0.23272063
Si     5.51695505    -0.03348287    13.67256256    -0.51668674     0.19797994    -0.08115937
Si     5.51287547    10.85456644    19.08539342    -0.16971007     0.30425295     0.74492729
Si     5.43793247     5.45518508    13.60400292     0.15790737    -0.08885141     0.21770678
Si     5.45805810     5.51912849    19.14143387    -0.31020242    -0.58183002     0.49163336
Si     1.36614890     1.35260903    15.12085710     0.28213441    -0.00685819    -0.38307354
Si     1.38572725     1.36648398    20.63124909     0.04552935    -0.01275024    -0.48380372
Si     1.43407788     6.85692417    15.12583338     0.17246537    -0.14101295    -0.49912745
Si     1.46503759     6.94484327    20.47590581     0.02964514    -0.40776628     0.11660048
Si     6.83856376     1.36737178    15.06475630     0.30393869     0.01300683     0.12430677
Si     6.76258852     1.28197386    20.65550951    -0.50204194     0.72639263    -1.14802980
Si     6.89917203     6.75564197    14.95164728    -0.10381559     0.25313568     0.03884619
Si     6.80264265     6.78769418    20.52353360     0.78018463    -0.04201999    -0.19985738
Si     0.05364436     2.74943685    10.93112599    -0.24062145     0.36052549     0.11965499
Si     0.04926676     2.74433894    16.46497918    -0.54376376    -0.00011785    -0.08645087
Si    -0.01581529     8.17659988    21.83575729     0.24496546     0.32827729     0.25773117
Si    11.01161200     8.13086279    16.41998685    -0.44278979     0.57644665     0.16957670
Si     5.58231095     2.62207520    10.98088890    -0.48192811     0.32740360    -0.39327195
Si     5.52836268     2.92607011    16.39407340    -0.29456776    -0.99726206     0.18543780
Si     5.48265867     8.15625829    21.80755613    -0.30929744     0.24432489     0.55999756
Si     5.54629353     8.12479566    16.31177065    -0.04242505     0.27298200     0.44980150
Si     4.03014381     4.14350804    14.99199697     0.39018577    -0.35909373    -0.16568489
Si     4.03475729     4.00170610    20.55959605     0.66636419     0.66609931    -0.41914159
Si     4.13484018     9.56855683    15.08829154    -0.14219172    -0.01783475    -0.46730277
Si     4.08969509     9.62588019    20.63662898     0.10689674    -0.12692751    -0.70569980
Si     9.63278042     4.15443675    15.00740558     0.30658323    -0.27898219     0.47675455
Si     9.59954955     4.02638022    20.45375949    -0.09390567     0.41224384    -0.37205356
Si     9.65113682     9.52823215    15.00816943    -0.00433163    -0.03506928     0.33993953
Si     9.56669789     9.58182248    20.53215381    -0.06142369     0.10575063    -0.02295555
Si     2.62985012     0.07803389    10.78763360     0.16586711    -0.09967968     0.32885158
Si     2.78592112    10.93136376    16.48809578    -0.16318280     0.06548763    -0.15672792
Si     2.80425406     5.40377799    10.89037271    -0.06034149     0.59914142     0.16268373
Si     2.83719760     5.48611222    16.44712788    -0.48930350     0.08337082     0.18787944
Si     8.20316429    11.03991005    10.92779748    -0.34433353    -0.52262259     0.10883889
Si     8.24845071    -0.11839749    16.40467061    -0.22969739     0.43781263    -0.02582277
Si     8.28226173     5.44205977    10.94622506    -0.49287766    -0.10333855     0.30817011
Si     8.26398044     5.47980720    16.34884483    -0.18079939    -0.23114166     0.70373988
Si     4.01189576     1.33070671    12.24668317     0.46335948     0.00868417     0.20723668
Si     4.18483684     1.37536387    17.81505204    -0.11243290     0.30458647    -0.33572558
Si     4.02765567     6.89364718    12.33855667     0.35371000    -0.36071804    -0.45312625
Si     4.16775769     6.91251291    17.81547012     0.04113515    -0.30750465    -0.54992330
Si     9.66845685     1.33517475    12.30121602    -0.21152467     0.23292050     0.13013878
Si     9.53445022     1.31472219    17.79162091     0.30614471     0.18312106     0.03335705
Si     9.60926928     6.89974137    12.24411350     0.20547688    -0.36316872     0.03953591
Si     9.65042312     6.79929104    17.79199590    -0.10221954    -0.06078497    -0.27980256
Si     2.60051083     2.73974717    13.56605216     0.66001499    -0.10996258     0.75660682
Si     2.71615993     2.73581549    19.15371008     0.05624455    -0.52055699     0.09653474
Si     2.65595117     8.24496313    13.65509911     0.30379969     0.26917398     0.16238323
Si     2.84182377     8.30073412    19.09974293    -0.34789512    -0.08104008     0.54377264
Si     8.33172020     2.71343388    13.75231518    -0.35289437    -0.35378841    -0.30419159
Si     8.13242787     2.63271190    19.20690241     0.19419345     0.18090807    -0.09563868
Si     8.31999207     8.16617220    13.66491717    -0.74705279     0.23414344    -0.13741089
Si     8.30572921     8.11062696    19.15665221    -0.53861952     0.32275891     0.21690747
128
Lattice="10.898 0.000 0.000 0.000 10.778 0.000 0.000 0.000 22.481" Properties=species:S:1:pos:R:3:forces:R:3 energy=-680.01123047 virial="-1.47690177 5.32293415 2.29639554 5.32293415 10.91546154 -11.06945705 2.29639554 -11.06945705 -34.28605652"
Si     1.43430375     4.09480567     1.38232028    -0.69106972     0.11704826     0.53089505
Si     1.37736321     4.13871192     6.89183355     0.08998851     0.15644753     0.13165249
Si     1.29617364     9.30838749     1.40838760     0.33985469     1.22375321     1.06308866
Si     1.28442685     9.58648099     6.86495866    -0.39332515    -1.03059983     0.50872517
Si     6.76007133     3.98026834     1.40632850    -0.89271861    -0.45935610    -0.61836261
Si     6.88772096     4.05075916     6.96298958    -0.12949981     0.03962816    -1.13240767
Si     6.72726302     9.25356675     1.30186753    -0.34867823     1.24692738     0.71815228
Si     6.62395414     9.29948234     6.93821781     1.61336017     1.63479877     1.31490719
Si    10.81267651    10.77745668     2.80784279     0.11078980     0.00155120    -0.11067466
Si    10.76806784    10.90058777     8.30055145     0.70162153     0.44071710    -0.30737391
Si    -0.26302916     5.43989771     2.55375023     1.98972476    -1.04022479     1.58609366
Si    -0.03513392     5.43902003     8.27670517     0.18207824     0.13946013     0.39885765
Si     5.17349993    -0.09462388     2.93468052     0.73358023     0.13889621    -1.06912208
Si     5.47969511    10.90548504     8.33634488    -0.55519247    -0.42422909     0.04828779
Si     5.52825133     5.38873380     2.69492418    -0.38247389     0.02650280     1.22582340
Si     5.64507149     5.33440412     8.30643545    -0.78381503     0.58639663     0.64606494
Si     1.15722410     1.43636040     4.31227426     0.03855126     0.01986612    -1.28323317
Si     1.42853539     1.55470289     9.67825436    -0.56067652    -0.19938669     0.11404577
Si     1.16761612     6.70172533     4.15867913     0.78596807     0.10627282    -0.53270072
Si     1.38517774     6.82510337     9.74352185     0.09474020    -0.40176171    -0.38050896
Si     6.67560944     1.21780274     4.24034183     0.06327791     0.31768867    -0.10102266
Si     6.90742455     1.44663826     9.84414026    -0.70900691    -0.50962389    -0.50619769
Si     6.79791684     6.83363059     4.13594793    -0.73697883    -0.62159324    -0.03532547
Si     6.79208556     6.69374752     9.81818059     0.30638912     0.16641754     0.64917743
Si     0.10817949     2.73486925     0.04314147    -0.99839759    -0.11722160    -0.29318005
Si    -0.10603867     2.78165422     5.63182228     0.05645897     0.30738971    -0.12189396
Si     0.12490222     8.23373324    11.09263712    -0.77679360    -0.66447014     0.22553653
Si    10.81454831     8.14818201     5.41552675    -0.13672352    -0.03267601     1.17794418
Si     5.25193321     2.51414379    22.64231564     0.43633750     1.01324630     0.00307974
Si     5.39030796     2.69519282     5.66405668     0.93023515     0.36488807    -0.90259629
Si     5.41352199     8.04269763    11.26020761     0.41775009     0.84752607    -0.48128927
Si     5.45507598     8.11521588     5.55034314    -1.21383083    -0.66279209    -0.81921542
Si     4.17285944     4.06910322     4.19657628    -0.41911080     0.31466889     0.04402877
Si     4.22516498     4.08867404     9.69236916    -0.44098121     0.34844944     0.46264777
Si     3.81333572     9.44725699     4.35068648     1.49757767    -0.12513149     0.02213998
Si     4.04609634     9.47444932     9.72333985     0.10641864    -0.25160038    -0.09607734
Si     9.54617001     4.07615983     4.15671772    -1.06843352    -0.05001866    -0.53662109
Si     9.53064260     3.96019453     9.59554833     0.06882240     1.19125414     1.05728674
Si     9.39295242     9.39537952     4.10085737     0.21639036    -0.22355878    -0.59702802
Si     9.59905914     9.43533937     9.62313996    -0.33923429     0.80189794     1.52531350
Si     2.57384988    -0.02519382     0.07073511     0.64544499    -0.53068185     0.19804356
Si     2.53389593    10.88888640     5.47847146     0.38981152     0.12963592     0.90128106
Si     2.68352578     5.51476128     0.03971596     1.49565077    -1.00211120     0.74883199
Si     2.81348592     5.55284461     5.56153744    -0.49981648    -0.73621702    -0.31418133
Si     8.20271132    10.58802643    -0.03794898    -0.85256034     1.55305600     0.36414939
Si     8.15498889    -0.16303607     5.56057765    -1.23017001     0.30564085    -0.03753560
Si     8.12396038     5.22575981     0.09656651     0.38546789    -0.94873309    -0.83790666
Si     8.10933056     5.50393998     5.41852982     0.63969231    -0.58811063     1.07380068
Si     3.72798018     1.35442395     1.53321117     1.21518707    -0.55247104     0.14668903
Si     3.97829157     1.39648572     6.78657387     0.24724934    -0.60178357     1.29992080
Si     4.08767740     6.78066421     1.60852761    -0.95079052    -0.42831635    -0.56866509
Si     4.27225779     6.69824408     6.99382620    -0.51823980     0.18605311    -0.30681345
Si     9.49775954     1.39680486     1.44011009    -0.38981038    -0.39909562    -0.57016075
Si     9.31786762     1.39027674     6.75006655     0.73246169    -0.07517797     1.31806958
Si     9.41116205     6.62180902     1.19191718     0.32692876     2.02155304     0.39520317
Si     9.44956416     6.83076952     6.97272079    -0.14132154     0.18408483    -0.17701691
Si     2.62000289     2.76670371     2.96133724    -0.25113928     0.20514092    -0.16345574
Si     2.89864291     2.86522206     8.20795802    -1.02471030    -0.34952086     0.56715077
Si     2.72774004     8.17830979     2.90463207    -1.22434986    -1.27095139    -0.58435702
Si     2.69639506     7.97278594     8.13239366     0.05443880     1.25202823     0.96541733
Si     7.91955282     2.66831838     2.77400683     1.52496719    -0.61329961     0.94696593
Si     8.11915661     2.72680579     8.31790296     0.32124704    -0.69411957    -0.01581978
Si     8.06705466     7.95039301     2.66793932     0.86217940     0.69986063    -0.17243032
Si     8.05390983     8.20637768     8.55542566    -0.02768154    -0.95933294    -1.41848111
Si     1.40834154     4.05640523    12.54849221     1.06408560     0.10449101     0.29394603
Si     1.54749799     3.95586507    18.38917543    -0.63460946    -0.09201282     0.24163270
Si     1.33963270     9.47909820    12.59046741     0.67010760     0.62280488    -0.00978372
Si     1.48821495     9.69997926    18.45909883    -0.27430728    -1.43013406    -0.15234706
Si     6.89827102     3.94114461    12.67788688    -0.07664752    -0.23986687     0.00236169
Si     6.83017748     3.89302259    18.30673037    -0.40390873     0.47711122     0.30113682
Si     6.82213013     9.56911502    12.68251086    -1.08810699    -0.58519715    -0.16454515
Si     6.90923398     9.29336741    18.36698758    -0.56762689     0.74693835     0.47635260
Si    10.97628838    10.79025437    14.09600820    -0.43336385    -0.28174341     0.09592225
Si    10.82998301    10.83683448    19.81212864     0.80428493    -0.63723278     0.27617151
Si     0.21313103     5.40465455    13.97462347    -0.90204805    -0.09911299     0.93007231
Si     0.10760732     5.31532417    19.80675551     0.28949821     0.31655186    -0.49432963
Si     5.29534368     0.09261364    14.08690762     1.87576652    -0.45916140     0.28917867
Si     5.39687016    10.74686298    19.80685330     0.40519375    -0.57077080    -1.60950541
Si     5.52905454     5.25989399    14.04854842     0.01112245     0.41235533    -0.20083827
Si     5.48372281     5.26077815    19.88160868     0.91867030     0.94403756    -1.45647120
Si     1.44418744     1.29563079    15.53814111    -0.75481433     0.54592216    -0.01022063
Si     1.36912180     1.28167603    21.16477557    -0.60621601     0.37367681     0.04738043
Si     1.49895103     6.80408480    15.38710508    -0.28369322     0.26277715     0.77210379
Si     1.45033214     6.74897129    21.19378372    -0.81799281     0.51821375    -1.06135535
Si     6.89638086     1.26760586    15.61996044    -0.11383016    -0.47279030    -0.70994115
Si     6.48536848     1.52370983    20.95547669     1.66456962    -0.85312498     1.38032293
Si     6.85227242     6.63208355    15.42046670     0.46560305     0.13142583     0.38402665
Si     7.01288057     6.58950372    21.24490217    -2.20143151     0.72744638    -0.62010270
Si    -0.06257352     2.88385936    11.21876601     0.41043618    -1.11212850    -0.45841894
Si    -0.01515957     2.59014154    17.13701874     1.54031885    -0.01862933    -0.46674579
Si     0.07711502     8.11697996    22.48889771    -1.06795180    -1.15674973    -0.39182827
Si    10.97798061     8.19381771    17.09960261     0.64782584    -0.67999828    -0.62863588
Si     5.43967147     2.68722715    11.14581675     0.36694324     0.23362613     0.59373230
Si     5.47041869     2.49043035    16.94284640     1.16491854     2.07697177    -1.28562140
Si     5.28303328     7.92804522    22.58069707     1.11713743     0.34255624    -1.16129375
Si     5.64118201     8.08450998    16.86895657    -0.78242826    -0.37788737    -0.23441032
Si     4.23213477     3.97934479    15.46951223    -0.63629639    -0.04215227     0.76110375
Si     4.17079348     4.04823950    21.18489990    -1.40053844    -0.79852992     0.71133232
Si     4.15283442     9.51125234    15.51505836    -0.04289098    -0.62831831     0.29531860
Si     4.12115158     9.49118403    21.19024325    -0.31356597    -0.27596933     0.91845632
Si     9.74988531     3.89530004    15.71248890    -1.01773763     1.00685740    -1.53401935
Si     9.47327951     4.06331635    21.00649115     0.38655010    -0.71137464     0.94480723
Si     9.61406710     9.29345536    15.56174019    -0.34171981     0.65111148    -0.60877347
Si     9.56942267     9.34314380    21.10262364     0.13967830     0.23937777     0.08742797
Si     2.71039539     0.12968511    11.13190705    -0.01522473    -0.39667404     0.09410234
Si     2.78816222    10.83084184    16.86801171     0.55054164     0.05298875     0.82015514
Si     2.83297913     5.56812472    11.15028245    -0.41197383    -1.26340818    -0.24779895
Si     2.73822153     5.37852719    16.93019496     0.81804955     0.04834355    -0.43973950
Si     8.09787268    10.80851946    11.25364990     1.33280063     0.00674604    -0.49768031
Si     8.23690284    -0.13896179    16.99651458     0.35718334     0.39661220    -0.10009197
Si     8.17813257     5.33763497    11.29359611     0.68342793     0.20884827    -0.66892672
Si     8.23920715     5.27447519    17.04781404     0.32730663     0.40700704    -0.92652953
Si     4.14914808     1.32506193    12.62871988    -0.86313844     0.73211026    -0.61547261
Si     4.22414385     1.45289823    18.33650850    -1.52097702    -2.18351603     1.00160849
Si     4.18426101     6.67100573    12.63360141    -0.36101800     0.65703213     0.71291673
Si     4.26173863     6.70709563    18.26658970    -0.67781484     0.16852447     0.77652085
Si     9.60348956     1.35264419    12.64212021     0.00712603    -0.19182819    -0.21770576
Si     9.57367858     1.32992060    18.49471191    -0.94912183    -0.44938797    -1.03158545
Si     9.71889680     6.76752351    12.59615596    -0.80416161     0.18758456    -0.11752585
Si     9.66632404     6.68345475    18.39901129    -0.43176544     0.14825949     0.16355096
Si     2.83492068     2.59825817    14.18279523    -0.41620731     0.61037368    -1.01463306
Si     2.81372120     2.47026025    19.85569237     0.19704802     1.65552616    -0.41985655
Si     2.81666119     8.30038900    14.00946525     0.08781014    -1.22286081    -0.07032917
Si     2.82167043     8.16398153    19.89873917    -0.12668169    -0.58504593    -1.61000180
Si     8.28066258     2.52709353    14.14466866     0.04359030     0.95293081     0.35897523
Si     8.13553273     2.60729967    19.71920912    -0.01258050     0.45149344     0.34362772
Si     8.06255662     8.11919516    13.95133158     1.43555689    -0.62934124     0.73757839
Si     8.16828143     8.02260127    19.86094561     0.63612849    -0.49826533    -0.86237538
128
Lattice="10.910 0.000 0.000 0.000 10.874 0.000 0.000 0.000 22.031" Properties=species:S:1:pos:R:3:forces:R:3 energy=-686.90283203 virial="3.13324451 -3.76542521 0.97805941 -3.76542521 7.59419441 4.68173933 0.97805941 4.68173933 -7.37121010"
Si     1.31463928     4.03921356     1.42585931    -0.04640483    -0.04458503    -0.40804976
Si     1.38581477     4.19714778     6.82103855    -0.48813942    -0.45592725     0.06782344
Si     1.33384836     9.54958694     1.40419206    -0.36615062    -0.62741864    -0.46799600
Si     1.24217037     9.54564184     6.82745653     0.38637668     0.38634530    -0.08818556
Si     6.68169779     3.91907395     1.34908855     0.72543180     0.61280775     0.53178030
Si     6.78131159     4.12530963     6.72469063     0.00423403    -0.07430632     1.11888230
Si     6.71754922     9.53420738     1.44251550     0.24762890    -0.45670629    -0.62671006
Si     6.78759442     9.60790602     6.88515993    -0.61817980    -0.76162970    -0.29233283
Si    10.81081110    10.83094147     2.67396638    -0.10861570     0.26836166     0.35886627
Si    10.91131665    11.05606279     8.13120832    -0.42478883    -0.85535485     0.39564812
Si    -0.03941145     5.41140190     2.66770473    -0.77959692     0.31373233     0.10179257
Si    -0.05825123     5.53356809     8.12477115     0.07155107     0.02775070     0.13550960
Si     5.38347399    -0.00437712     2.70191160    -0.29573107    -0.08391488     0.81524634
Si     5.43694776    10.97325051     8.21048361     0.10805281    -0.39339912     0.06055057
Si     5.36164136     5.40335496     2.70511847     0.18529740     0.12959668    -0.26661479
Si     5.50494758     5.49244035     8.27909727    -0.01478924     0.02659266    -0.43358645
Si     1.11980556     1.42175486     4.06419775     0.50146580     0.00827929     0.58691996
Si     1.34228436     1.41322231     9.55395482     0.44203740    -0.19693911    -0.00058322
Si     1.24693884     6.73333393     4.06323289    -0.37220937     0.26017377     0.71967828
Si     1.38673720     6.85914599     9.44301831    -0.01818388     0.16863167     0.68042392
Si     6.63315707     1.35366403     4.14664484     0.28937483     0.04447577    -0.38719684
Si     6.76493925     1.36603952     9.61165103     0.44333631     0.29567254     0.32694504
Si     6.66439738     6.70698412     4.12492743     0.50018710     0.58122921    -0.06800985
Si     6.88374166     6.84725156     9.68920149    -0.24756469     0.13031924    -0.56290936
Si    -0.10587396     2.65619353     0.07206904     0.75075364    -0.29849732     0.39619756
Si    -0.13978664     2.89276592     5.50539878     0.12706912    -0.64338964    -0.12670563
Si     0.06497083     8.17661220    10.99496207     0.29616722     0.36890435    -0.12952028
Si    10.81679792     8.15827868     5.51165963     0.19783014     0.09487919    -0.68388659
Si     5.30068884     2.62395369    22.09525780     0.49912554    -0.38366228    -0.14036198
Si     5.39872332     2.82550501     5.42893071    -0.43961087    -0.47324884     0.35357365
Si     5.47915516     8.30025410    10.91926344    -0.08480352    -0.80293477     0.41637558
Si     5.32726411     8.15920078     5.45216819     0.66928869     0.31079173     0.24753821
Si     4.03382340     4.20746687     4.13001389    -0.16034669    -0.77940118    -0.14690064
Si     4.03710765     4.18266180     9.54511702     0.52792799    -0.58861089     0.00738150
Si     4.00824238     9.54723871     4.11509195    -0.56950521    -0.01692267     0.02738716
Si     4.12265249     9.55090000     9.49573704    -0.01261507     0.43959704     0.56621325
Si     9.40950435     4.10364950     4.01708333     0.47149050     0.09255061     0.29817379
Si     9.52794981     4.19229206     9.53589154     0.37879899    -0.91676819    -0.18229933
Si     9.49160879     9.47610096     4.04838870    -0.27472562     0.36714503     0.58106565
Si     9.61018200     9.59619645     9.60878309     0.08272715    -0.45539975    -0.58097792
Si     2.69915989    -0.03935374     0.01656152    -0.10625823     0.23852836     0.09150711
Si     2.57710322    10.98503831     5.48877992     0.21683075    -0.35886306    -0.28927821
Si     2.75705439     5.39390356     0.14158073    -0.89494371     0.21807206    -0.59857363
Si     2.68151147     5.51032673     5.42146353     0.04100686     0.20887044     0.50966525
Si     8.02429269    10.89723299     0.01449598     0.76293886    -1.29206133     0.15201092
Si     7.97763018    -0.01911874     5.39988369     1.24504805     0.20579261     0.20432636
Si     8.14445488     5.31038411    -0.02012201    -0.21707237     0.44369274     0.39762574
Si     8.17392092     5.44304700     5.46430121    -0.42202359     0.22429962    -0.38370270
Si     3.98011436     1.31027202     1.49019027    -0.39741307     0.42434907    -0.40399510
Si     4.09315664     1.34398049     6.85122576    -0.46753016     0.75593966    -0.44151515
Si     3.94541125     6.83747836     1.45022427     0.65265024     0.00179766    -0.00105954
Si     4.10147679     6.79686223     6.85577001    -0.40044743     0.21975552     0.14387965
Si     9.40138331     1.25615267     1.33410438     0.38519645     0.49048629     0.46913964
Si     9.40859329     1.39275202     6.82701450     0.12827757     0.07622922    -0.48875189
Si     9.43974429     6.89659668     1.34147399    -0.03608200    -1.07034028     0.14407200
Si     9.39990170     6.89653806     6.79083250     0.57834452    -0.66381878     0.19822001
Si     2.61657657     2.78228287     2.87069379     0.26555991    -0.44724309    -0.35448456
Si     2.69226702     2.73659535     8.19249733     0.23007360     0.34867999    -0.14173941