12
Lattice="3.63000 0.00000 0.00000 0.15400 3.52500 -0.00000 0.22200 0.37800 11.39500" Properties=species:S:1:pos:R:3:force:R:3 pbc="T T T" energy=-10809.616070915781 virial="2.1952 -1.2509 -2.9891 -1.2509 2.3471 -4.6198 -2.9891 -4.6198 2.0869"
Au     0.36576694     3.48216628     3.54247925     0.52466045     4.21926126    -9.49234612
Au     3.63891079     2.17019513     9.37625591     2.76080078    -2.08679341   -18.19788646
Au     2.02726342     2.14031830    11.05439174    -1.46751938    -0.25116754     6.45053559
Au     2.20237754     3.61886734     5.19811696     0.87550877    -0.14849168     9.52552704
Au     3.82249127     0.37341664    10.67107343    -3.07296937     1.91476048    22.42260204
Au     2.15350008     1.78605414     3.50932873    -0.92881924    -0.81445289    -7.80622352
Au     2.02200937     2.05926176     7.23693430    -1.57185644     0.78631755    -1.15776039
Au     0.36452903     1.86208092     5.23513305    -2.10476128    -2.10235364     9.38351169
Au     1.83556901     0.41381842     9.16185693     3.23319742     0.06612859    -8.97970640
Au     2.02597930     3.56107391     1.55100022    -0.48897561     1.36084755    -0.29042122
Au     3.70636184     0.30751884     7.34717229     1.53589019    -0.89716284    -2.64826671
Au     3.73414283     1.84197235     1.46051299     0.70931905    -2.04359207     0.79646681
12
Lattice="3.63000 0.00000 0.00000 0.15400 3.52500 -0.00000 0.22200 0.37800 11.39500" Properties=species:S:1:pos:R:3:force:R:3 pbc="T T T" energy=-10809.657816688887 virial="2.1941 -1.2480 -3.0128 -1.2480 2.3450 -4.7600 -3.0128 -4.7600 2.0867"
Au     0.36710145     3.48147914     3.54197915     0.51434993     4.22117194    -9.46818612
Au     3.63923776     2.16992733     9.37532298     2.67879290    -2.01154205   -18.10800618
Au     2.02647953     2.13981798    11.05351955    -1.36964216    -0.22453975     6.44304275
Au     2.20420396     3.61753520     5.19913925     0.75216766    -0.11225613     9.50818200
Au     3.82407427     0.37288954    10.67194380    -3.21488255     1.91039295    22.37490860
Au     2.15382478     1.78550261     3.51062389    -0.94138307    -0.81163821    -7.84286305
Au     2.02165572     2.05876461     7.23784490    -1.62105069     0.88379298    -1.20173858
Au     0.36255170     1.86101594     5.23458276    -1.95510629    -2.11506600     9.40110559
Au     1.83410259     0.41505795     9.16067019     3.37041091    -0.01705214    -8.94165276
Au     2.02542929     3.56348299     1.55032541    -0.42145964     1.23532552    -0.28515229
Au     3.70562317     0.30947716     7.34641671     1.56440313    -0.99369675    -2.64256339
Au     3.73461731     1.84179366     1.46188735     0.64733806    -1.96171988     0.76932286
12
Lattice="3.63000 0.00000 0.00000 0.15400 3.52500 -0.00000 0.22200 0.37800 11.39500" Properties=species:S:1:pos:R:3:force:R:3 pbc="T T T" energy=-10809.763568956649 virial="2.1912 -1.2470 -2.9795 -1.2470 2.3406 -5.0231 -2.9795 -5.0231 2.0855"
Au     0.36845120     3.48100309     3.54102065     0.50207793     4.20111313    -9.39976105
Au     3.63969305     2.16956334     9.37351318     2.60282569    -1.91115411   -17.92846426
Au     2.02563458     2.13931041    11.05296825    -1.25440233    -0.19569650     6.38140798
Au     2.20605359     3.61620741     5.20061804     0.62765208    -0.07875331     9.45177283
Au     3.82548868     0.37245957    10.67389974    -3.33566772     1.88012327    22.22361889
Au     2.15410114     1.78491554     3.51152672    -0.95716270    -0.80193932    -7.84207990
Au     2.02122556     2.05831427     7.23869013    -1.66573637     0.97887302    -1.24348314
Au     0.36049356     1.85985560     5.23449536    -1.80286079    -2.10969032     9.37239144
Au     1.83281149     0.41628749     9.15905582     3.46547908    -0.10239963    -8.83485242
Au     2.02486278     3.56593457     1.54964166    -0.35067749     1.10320024    -0.28029133
Au     3.70496631     0.31137252     7.34553774     1.58918364    -1.08674662    -2.63972157
Au     3.73511989     1.84152055     1.46328911     0.58266567    -1.87386448     0.74617282
12
Lattice="3.63000 0.00000 0.00000 0.15400 3.52500 -0.00000 0.22200 0.37800 11.39500" Properties=species:S:1:pos:R:3:force:R:3 pbc="T T T" energy=-10809.932693682937 virial="2.1867 -1.2480 -2.8892 -1.2480 2.3338 -5.4102 -2.8892 -5.4102 2.0830"
Au     0.36983285     3.48073084     3.53959533     0.48748277     4.15751124    -9.28645257
Au     3.64027862     2.16910352     9.37081309     2.53229901    -1.78702871   -17.65767259
Au     2.02472349     2.13879049    11.05272744    -1.12158007    -0.16307991     6.26471616
Au     2.20794397     3.61486864     5.20256900     0.50065717    -0.04599201     9.35585207
Au     3.82674684     0.37211964    10.67695773    -3.43544140     1.82409539    21.96747620
Au     2.15433197     1.78428593     3.51204920    -0.97600374    -0.78324782    -7.80422104
Au     2.02071128     2.05790959     7.23947881    -1.70629729     1.07195859    -1.28300288
Au     0.35833584     1.85858541     5.23486783    -1.64649510    -2.08816958     9.29695275
Au     1.83168369     0.41751859     9.15699885     3.51887179    -0.19075219    -8.65836183
Au     2.02427600     3.56845348     1.54894048    -0.27601194     0.96284568    -0.27451787
Au     3.70438398     0.31322466     7.34452441     1.61052555    -1.17632196    -2.63964135
Au     3.73565377     1.84115394     1.46473504     0.51478706    -1.77884346     0.72586222
12
Lattice="3.63000 0.00000 0.00000 0.15400 3.52500 -0.00000 0.22200 0.37800 11.39500" Properties=species:S:1:pos:R:3:force:R:3 pbc="T T T" energy=-10810.160492683552 virial="2.1807 -1.2507 -2.7427 -1.2507 2.3250 -5.8832 -2.7427 -5.8832 2.0795"
Au     0.37123328     3.48066287     3.53772114     0.47046857     4.09032858    -9.12949364
Au     3.64098588     2.16855801     9.36725948     2.46791521    -1.64432653   -17.29796642
Au     2.02376089     2.13826451    11.05279382    -0.97356200    -0.12520795     6.09495015
Au     2.20985192     3.61353252     5.20497029     0.37263417    -0.01235706     9.22071725
Au     3.82783241     0.37187014    10.68107865    -3.51215538     1.74549918    21.60782947
Au     2.15451423     1.78362033     3.51218818    -0.99744541    -0.75472344    -7.72962650
Au     2.02011545     2.05755881     7.24020188    -1.74214825     1.16062511    -1.32015616
Au     0.35610550     1.85721777     5.23569352    -1.48781088    -2.05232773     9.17589112
Au     1.83073207     0.41873587     9.15452604     3.52990640    -0.28196571    -8.41491206
Au     2.02367787     3.57101025     1.54822844    -0.19841445     0.81598588    -0.26637088
Au     3.70388254     0.31501251     7.34338571     1.62832476    -1.26053671    -2.64147725
Au     3.73621088     1.84070169     1.46621116     0.44449407    -1.67809584     0.70787998
12
Lattice="3.63000 0.00000 0.00000 0.15400 3.52500 -0.00000 0.22200 0.37800 11.39500" Properties=species:S:1:pos:R:3:force:R:3 pbc="T T T" energy=-10810.443582916801 virial="2.1733 -1.2549 -2.5395 -1.2549 2.3142 -6.3885 -2.5395 -6.3885 2.0748"
Au     0.37265866     3.48079530     3.53539692     0.45049336     4.00143634    -8.92871282
Au     3.64181506     2.16793116     9.36285315     2.40946367    -1.48601119   -16.84861843
Au     2.02274926     2.13773168    11.05315906    -0.81083104    -0.08108879     5.87435787
Au     2.21178071     3.61219398     5.20782680     0.24344895     0.02278383     9.04459553
Au     3.82874729     0.37170587    10.68626433    -3.56590483     1.64929660    21.14151158
Au     2.15464784     1.78291684     3.51194845    -1.02111836    -0.71805226    -7.61749310
Au     2.01943342     2.05726444     7.24086120    -1.77325359     1.24367933    -1.35664619
Au     0.35379921     1.85574768     5.23697012    -1.32661646    -2.00176100     9.01005913
Au     1.82995219     0.41994096     9.15163741     3.49938964    -0.37794324    -8.10523587
Au     2.02306921     3.57361047     1.54750239    -0.11772420     0.66302028    -0.25509402
Au     3.70346023     0.31674098     7.34211600     1.64270581    -1.33977737    -2.64360555
Au     3.73679052     1.84016657     1.46772398     0.37157333    -1.57275656     0.69246996
12
Lattice="3.63000 0.00000 0.00000 0.15400 3.52500 -0.00000 0.22200 0.37800 11.39500" Properties=species:S:1:pos:R:3:force:R:3 pbc="T T T" energy=-10810.776210617203 virial="2.1645 -1.2605 -2.2813 -1.2605 2.3017 -6.8746 -2.2813 -6.8746 2.0692"
Au     0.37410735     3.48112395     3.53263312     0.42689900     3.89461855    -8.68537270
Au     3.64276303     2.16723094     9.35761734     2.35740623    -1.31560846   -16.31303761
Au     2.02169704     2.13719441    11.05381249    -0.63507225    -0.03131887     5.60766360
Au     2.21372309     3.61085542     5.21112902     0.11385739     0.05820757     8.82695056
Au     3.82948820     0.37162229    10.69249053    -3.59741429     1.54206110    20.56981310
Au     2.15473152     1.78217755     3.51133521    -1.04627287    -0.67647223    -7.46773276
Au     2.01866391     2.05703077     7.24145461    -1.79945849     1.32013366    -1.39415621
Au     0.35142594     1.85417823     5.23868937    -1.16385273    -1.93492586     8.80131588
Au     1.82934314     0.42112857     9.14834909     3.42927866    -0.47961534    -7.73226554
Au     2.02245426     3.57624542     1.54676321    -0.03423683     0.50533449    -0.24119295
Au     3.70311806     0.31840529     7.34071563     1.65354058    -1.41488984    -2.64443296
Au     3.73738888     1.83955391     1.46927204     0.29639296    -1.46477246     0.68047528
12
Lattice="3.63000 0.00000 0.00000 0.15400 3.52500 -0.00000 0.22200 0.37800 11.39500" Properties=species:S:1:pos:R:3:force:R:3 pbc="T T T" energy=-10811.148802991349 virial="2.1547 -1.2672 -1.9742 -1.2672 2.2879 -7.3143 -1.9742 -7.3143 2.0627"
Au     0.37556551     3.48164006     3.52946720     0.39934905     3.77379184    -8.40348680
Au     3.64381860     2.16647202     9.35162659     2.31264566    -1.13823613   -15.70152729
Au     2.02062207     2.13665983    11.05473443    -0.45003450     0.02260098     5.30180313
Au     2.21565580     3.60953018     5.21483606    -0.01440180     0.09227225     8.57067784
Au     3.83004778     0.37161460    10.69967163    -3.60818182     1.42975347    19.90360049
Au     2.15476350     1.78141104     3.51036240    -1.07183855    -0.63209167    -7.28261190
Au     2.01781262     2.05686335     7.24197535    -1.82043688     1.38912964    -1.43292955
Au     0.34901447     1.85252666     5.24082460    -1.00186536    -1.85180254     8.55330857
Au     1.82890619     0.42228347     9.14470925     3.32365245    -0.58576007    -7.30372165
Au     2.02184246     3.57888438     1.54601805     0.05096715     0.34517214    -0.22561442
Au     3.70285926     0.31998751     7.33919721     1.66051922    -1.48595973    -2.64325353
Au     3.73799700     1.83887459     1.47084116     0.22017702    -1.35620073     0.67240429
12
Lattice="3.63000 0.00000 0.00000 0.15400 3.52500 -0.00000 0.22200 0.37800 11.39500" Properties=species:S:1:pos:R:3:force:R:3 pbc="T T T" energy=-10811.557251683551 virial="2.1440 -1.2749 -1.6209 -1.2749 2.2728 -7.7062 -1.6209 -7.7062 2.0553"
Au     0.37704480     3.48234167     3.52588602     0.36727553     3.63963657    -8.08278958
Au     3.64498865     2.16565650     9.34485988     2.27490874    -0.95643838   -15.01547671
Au     2.01952389     2.13612579    11.05591720    -0.25662238     0.08045951     4.95783510
Au     2.21758986     3.60820805     5.21896712    -0.14202446     0.12480221     8.27542691
Au     3.83043110     0.37167698    10.70783590    -3.60037660     1.31503220    19.14561969
Au     2.15474298     1.78061274     3.50903161    -1.09728660    -0.58456894    -7.06215502
Au     2.01687119     2.05676383     7.24242640    -1.83627249     1.45121787    -1.47289665
Au     0.34655132     1.85078257     5.24338131    -0.84003737    -1.75251674     8.26561991
Au     1.82863167     0.42341089     9.14070755     3.18594288    -0.69629995    -6.82120441
Au     2.02123250     3.58154308     1.54526104     0.13821575     0.18155526    -0.20863237
Au     3.70268156     0.32149859     7.33754762     1.66344022    -1.55378041    -2.63991107
Au     3.73861657     1.83812807     1.47244492     0.14292939    -1.24653253     0.66803467
12
Lattice="3.63000 0.00000 0.00000 0.15400 3.52500 -0.00000 0.22200 0.37800 11.39500" Properties=species:S:1:pos:R:3:force:R:3 pbc="T T T" energy=-10811.99282087903 virial="2.1325 -1.2834 -1.2278 -1.2834 2.2567 -8.0532 -1.2278 -8.0532 2.0472"
Au     0.37854081     3.48322090     3.52191214     0.33053021     3.49374887    -7.72653438
Au     3.64626908     2.16479485     9.33736373     2.24405607    -0.77429660   -14.26347469
Au     2.01841409     2.13559614    11.05734171    -0.05786419     0.14170144     4.57979672
Au     2.21951533     3.60689316     5.22349985    -0.26843979     0.15576940     7.94388056
Au     3.83063781     0.37180369    10.71693065    -3.57616998     1.20082251    18.30694843
Au     2.15466875     1.77978650     3.50735616    -1.12187335    -0.53354161    -6.80876884
Au     2.01584067     2.05673546     7.24280496    -1.84676072     1.50611328    -1.51323882
Au     0.34404915     1.84895417     5.24634057    -0.67945954    -1.63888716     7.94074033
Au     1.82851338     0.42450326     9.13637528     3.02129611    -0.80985827    -6.29128650
Au     2.02062983     3.58420839     1.54449446     0.22688522     0.01514024    -0.19040149
Au     3.70258547     0.32293230     7.33577018     1.66207500    -1.61808201    -2.63435543
Au     3.73924260     1.83732115     1.47408001     0.06543444    -1.13619881     0.66703658
12
Lattice="3.63000 0.00000 0.00000 0.15400 3.52500 -0.00000 0.22200 0.37800 11.39500" Properties=species:S:1:pos:R:3:force:R:3 pbc="T T T" energy=-10812.447080635286 virial="2.1206 -1.2925 -8.0121 -1.2925 2.2400 -8.3600 -8.0121 -8.3600 2.0386"
Au     0.38005110     3.48427005     3.51756506     0.28903098     3.33754744    -7.33774978
Au     3.64765775     2.16389639     9.32917886     2.21965294    -0.59509824   -13.45359452
Au     2.01730287     2.13507410    11.05898862     0.14349541     0.20598134     4.17124032
Au     2.22142519     3.60558757     5.22841570    -0.39332217     0.18547052     7.57840743
Au     3.83066919     0.37198903    10.72691002    -3.53777131     1.08937726    17.39787061
Au     2.15453970     1.77893519     3.50534953    -1.14501211    -0.47858061    -6.52473848
Au     2.01472104     2.05678085     7.24310895    -1.85168928     1.55353112    -1.55321338
Au     0.34151690     1.84704785     5.24968479    -0.52094876    -1.51287176     7.58100949
Au     1.82854315     0.42555459     9.13174054     2.83496499    -0.92533194    -5.72026661
Au     2.02003903     3.58687105     1.54371954     0.31645968    -0.15363620    -0.17081313
Au     3.70257087     0.32428497     7.33386604     1.65619027    -1.67860825    -2.62646222
Au     3.73987105     1.83645963     1.47574568    -0.01163487    -1.02553218     0.66915627
12
Lattice="3.63000 0.00000 0.00000 0.15400 3.52500 -0.00000 0.22200 0.37800 11.39500" Properties=species:S:1:pos:R:3:force:R:3 pbc="T T T" energy=-10812.91041876227 virial="2.1085 -1.3018 -3.4839 -1.3018 2.2230 -8.6333 -3.4839 -8.6333 2.0295"
Au     0.38156918     3.48547794     3.51287754     0.24288791     3.17296625    -6.92073136
Au     3.64914908     2.16297261     9.32037069     2.20107395    -0.42194065   -12.59637390
Au     2.01620333     2.13456433    11.06083252     0.34429421     0.27278436     3.73676218
Au     2.22330782     3.60429653     5.23368138    -0.51605384     0.21417898     7.18247510
Au     3.83052750     0.37222685    10.73769798    -3.48745169     0.98275659    16.43101186
Au     2.15435521     1.77806406     3.50303237    -1.16615661    -0.41962864    -6.21330925
Au     2.01351560     2.05690199     7.24333574    -1.85080499     1.59306137    -1.59192581
Au     0.33896982     1.84507559     5.25338556    -0.36570060    -1.37682714     7.19008542
Au     1.82871138     0.42655627     9.12684562     2.63280230    -1.04136156    -5.11601154
Au     2.01946619     3.58951502     1.54293951     0.40616657    -0.32385985    -0.14982732
Au     3.70263728     0.32554991     7.33184150     1.64559017    -1.73499870    -2.61596187
Au     3.74049628     1.83555161     1.47743707    -0.08743095    -0.91512429     0.67410490
12
Lattice="3.63000 0.00000 0.00000 0.15400 3.52500 -0.00000 0.22200 0.37800 11.39500" Properties=species:S:1:pos:R:3:force:R:3 pbc="T T T" energy=-10813.37591545405 virial="2.0963 -1.3111 1.2643 -1.3111 2.2059 -8.8808 1.2643 -8.8808 2.0201"
Au     0.38309675     3.48683923     3.50785867     0.19202295     3.00112940    -6.47767776
Au     3.65074580     2.16202963     9.31095987     2.18741009    -0.25642410   -11.69777156
Au     2.01512238     2.13406870    11.06285640     0.54259004     0.34200338     3.27877159
Au     2.22516222     3.60301801     5.23929030    -0.63672160     0.24239656     6.75747487
Au     3.83021533     0.37251239    10.74927316    -3.42707301     0.88205270    15.41365991
Au     2.15411393     1.77717376     3.50041475    -1.18494570    -0.35650007    -5.87617448
Au     2.01222147     2.05710092     7.24348425    -1.84384237     1.62447162    -1.62875272
Au     0.33640885     1.84303904     5.25743242    -0.21400898    -1.23233055     6.76969354
Au     1.82900821     0.42750541     9.12170802     2.41947791    -1.15733543    -4.48323079
Au     2.01891412     3.59213897     1.54215339     0.49569170    -0.49548112    -0.12723387
Au     3.70278414     0.32672793     7.32969211     1.63002097    -1.78725518    -2.60243003
Au     3.74111625     1.83460022     1.47915879    -0.16151657    -0.80502826     0.68166903
12
Lattice="3.63000 0.00000 0.00000 0.15400 3.52500 -0.00000 0.22200 0.37800 11.39500" Properties=species:S:1:pos:R:3:force:R:3 pbc="T T T" energy=-10813.83723011532 virial="2.0843 -1.3202 6.2039 -1.3202 2.1890 -0.9109 6.2039 -0.9109 2.0104"
Au     0.38463693     3.48835054     3.50251165     0.13632514     2.82298046    -6.01024741
Au     3.65245313     2.16107211     9.30095573     2.17761535    -0.09968172   -10.76252553
Au     2.01406577     2.13358882    11.06504531     0.73670233     0.41363287     2.79924389
Au     2.22698927     3.60174870     5.24524233    -0.75552456     0.27066782     6.30424391
Au     3.82973445     0.37284178    10.76162839    -3.35816444     0.78803588    14.35196505
Au     2.15381405     1.77626412     3.49750349    -1.20109585    -0.28904491    -5.51466235
Au     2.01083421     2.05737992     7.24355321    -1.83047636     1.64750033    -1.66312238
Au     0.33383203     1.84093780     5.26181971    -0.06603054    -1.08063638     6.32109747
Au     1.82942430     0.42839977     9.11633982     2.19922522    -1.27282085    -3.82591238
Au     2.01838521     3.59474411     1.54135938     0.58478053    -0.66858414    -0.10279896
Au     3.70301124     0.32782077     7.32741060     1.60919933    -1.83551502    -2.58526246
Au     3.74172960     1.83360736     1.48091753    -0.23348650    -0.69520764     0.69167305
12
Lattice="3.63000 0.00000 0.00000 0.15400 3.52500 -0.00000 0.22200 0.37800 11.39500" Properties=species:S:1:pos:R:3:force:R:3 pbc="T T T" energy=-10814.28280708634 virial="2.0727 -1.3287 1.1252 -1.3287 2.1726 -0.9319 1.1252 -0.9319 2.0009"
Au     0.38617297     3.48998905     3.49690873     0.07645768     2.64170215    -5.52602377
Au     3.65425478     2.16011644     9.29049637     2.17065005     0.04566048    -9.80697299
Au     2.01305253     2.13313249    11.06735551     0.92267878     0.48676989     2.30629366
Au     2.22876663     3.60050150     5.25146036    -0.87114724     0.29919470     5.82945694
Au     3.82909302     0.37320733    10.77459759    -3.28274641     0.70224848    13.26589530
Au     2.15345763     1.77534675     3.49434346    -1.21423230    -0.21813356    -5.13476689
Au     2.00936733     2.05773739     7.24354049    -1.81049156     1.66155990    -1.69399285
Au     0.33127005     1.83879855     5.26648481     0.07621874    -0.92476165     5.85133607
Au     1.82994483     0.42922574     9.11082250     1.97865632    -1.38596704    -3.15632009
Au     2.01788856     3.59729836     1.54056592     0.67195246    -0.84099930    -0.07661714
Au     3.70331529     0.32881635     7.32501890     1.58306322    -1.87932565    -2.56398128
Au     3.74232725     1.83258753     1.48269771    -0.30196747    -0.58703996     0.70386521
12
Lattice="3.63000 0.00000 0.00000 0.15400 3.52500 -0.00000 0.22200 0.37800 11.39500" Properties=species:S:1:pos:R:3:force:R:3 pbc="T T T" energy=-10814.706858766998 virial="2.0618 -1.3364 1.6386 -1.3364 2.1570 -0.9517 1.6386 -0.9517 1.9915"
Au     0.38770383     3.49174709     3.49106843     0.01256070     2.45849975    -5.02775590
Au     3.65615199     2.15916854     9.27961872     2.16532783     0.17908806    -8.83749801
Au     2.01209023     2.13270258    11.06976495     1.09882795     0.56122779     1.80315454
Au     2.23049113     3.59927615     5.25792703    -0.98348502     0.32847960     5.33521823
Au     3.82829498     0.37360506    10.78813945    -3.20177720     0.62484152    12.16488620
Au     2.15304398     1.77442405     3.49095097    -1.22420062    -0.14399709    -4.73887832
Au     2.00782054     2.05817394     7.24344511    -1.78361447     1.66631750    -1.72064875
Au     0.32872667     1.83662654     5.27140862     0.21228050    -0.76596990     5.36285794
Au     1.83055898     0.42997921     9.10518304     1.76150247    -1.49615475    -2.47968679
Au     2.01742760     3.59979669     1.53977332     0.75664430    -1.01229806    -0.04863788
Au     3.70369491     0.32971436     7.32251585     1.55140240    -1.91882062    -2.53789262
Au     3.74290668     1.83154495     1.48450193    -0.36630741    -0.48074893     0.71806978
12
Lattice="3.63000 0.00000 0.00000 0.15400 3.52500 -0.00000 0.22200 0.37800 11.39500" Properties=species:S:1:pos:R:3:force:R:3 pbc="T T T" energy=-10815.10563981235 virial="2.0516 -1.3429 2.1612 -1.3429 2.1423 -0.9707 2.1612 -0.9707 1.9823"
Au     0.38923405     3.49362406     3.48498671    -0.05543815     2.27378391    -4.51623599
Au     3.65815369     2.15823018     9.26831721     2.16033888     0.30081038    -7.85689108
Au     2.01118253     2.13230050    11.07226071     1.26424494     0.63710975     1.29117118
Au     2.23216606     3.59806789     5.26464966    -1.09284343     0.35914425     4.82179527
Au     3.82734081     0.37403306    10.80226591    -3.11548335     0.55540099    11.05398949
Au     2.15257072     1.77349505     3.48732921    -1.23094218    -0.06664431    -4.32789805
Au     2.00618767     2.05869172     7.24326556    -1.74932516     1.66141311    -1.74252574
Au     0.32619575     1.83441881     5.27659100     0.34215478    -0.60471657     4.85634961
Au     1.83125889     0.43065881     9.09942677     1.55026230    -1.60321333    -1.79854225
Au     2.01700408     3.60224342     1.53897899     0.83848253    -1.18269041    -0.01870748
Au     3.70415018     0.33051769     7.31989057     1.51383814    -1.95428043    -2.50608961
Au     3.74346770     1.83047968     1.48633984    -0.42600892    -0.37611087     0.73423461
12
Lattice="3.63000 0.00000 0.00000 0.15400 3.52500 -0.00000 0.22200 0.37800 11.39500" Properties=species:S:1:pos:R:3:force:R:3 pbc="T T T" energy=-10815.474259599287 virial="2.0421 -1.3482 2.6917 -1.3482 2.1286 -0.9891 2.6917 -0.9891 1.9736"
Au     0.39076230     3.49561336     3.47868075    -0.12737116     2.08854821    -3.99414218
Au     3.66026220     2.15730611     9.25662526     2.15435009     0.41071272    -6.87176678
Au     2.01033633     2.13192945    11.07482095     1.41748465     0.71422757     0.77369090
Au     2.23378826     3.59687664     5.27161181    -1.19910695     0.39173246     4.29135501
Au     3.82623352     0.37448848    10.81694085    -3.02402159     0.49368190     9.94134755
Au     2.15203692     1.77256233     3.48349363    -1.23436465     0.01362104    -3.90425617
Au     2.00446829     2.05929116     7.24300054    -1.70720155     1.64643209    -1.75888303
Au     0.32368038     1.83218037     5.28201386     0.46533810    -0.44191009     4.33427417
Au     1.83203509     0.43126018     9.09357958     1.34784114    -1.70657226    -1.11787886
Au     2.01662143     3.60463339     1.53818336     0.91666610    -1.35171593     0.01313432
Au     3.70467984     0.33122564     7.31714122     1.47009182    -1.98591241    -2.46770629
Au     3.74400812     1.82939546     1.48821462    -0.48023980    -0.27331711     0.75220303
12
Lattice="3.63000 0.00000 0.00000 0.15400 3.52500 -0.00000 0.22200 0.37800 11.39500" Properties=species:S:1:pos:R:3:force:R:3 pbc="T T T" energy=-10815.807579279737 virial="2.0337 -1.3521 3.2266 -1.3521 2.1161 -1.0073 3.2266 -1.0073 1.9654"
Au     0.39228245     3.49770248     3.47218694    -0.20279827     1.90414848    -3.46573743
Au     3.66247362     2.15640327     9.24461113     2.14603548     0.50858976    -5.89171298
Au     2.00956056     2.13159381    11.07741594     1.55687845     0.79209671     0.25569775
Au     2.23534978     3.59570602     5.27877557    -1.30183350     0.42666601     3.74773165
Au     3.82497954     0.37496751    10.83208459    -2.92747898     0.43934055     8.83612863
Au     2.15144334     1.77163142     3.47947159    -1.23438408     0.09626258    -3.47170666
Au     2.00266743     2.05997047     7.24264973    -1.65690326     1.62098966    -1.76894486
Au     0.32119085     1.82992302     5.28764229     0.58090184    -0.27876604     3.80076908
Au     1.83287633     0.43177728     9.08768478     1.15718673    -1.80531455    -0.44456319
Au     2.01628412     3.60695428     1.53738934     0.99003936    -1.51841481     0.04666399
Au     3.70528083     0.33183551     7.31427441     1.42002067    -2.01384899    -2.42200196
Au     3.74452437     1.82829918     1.49012394    -0.52793004    -0.17273149     0.77188954
12
Lattice="3.63000 0.00000 0.00000 0.15400 3.52500 -0.00000 0.22200 0.37800 11.39500" Properties=species:S:1:pos:R:3:force:R:3 pbc="T T T" energy=-10816.101494440945 virial="2.0263 -1.3544 3.7600 -1.3544 2.1051 -1.0254 3.7600 -1.0254 1.9580"
Au     0.39378748     3.49987756     3.46554592    -0.28118127     1.72183229    -2.93555765
Au     3.66478240     2.15552840     9.23235008     2.13411704     0.59440692    -4.92623336
Au     2.00886358     2.13129806    11.08001454     1.68110275     0.87011816    -0.25748574
Au     2.23684228     3.59456027     5.28609803    -1.40057995     0.46436410     3.19506582
Au     3.82358670     0.37546639    10.84760851    -2.82579677     0.39188378     7.74604801
Au     2.15079143     1.77070841     3.47529357    -1.23095706     0.18067623    -3.03427091
Au     2.00079172     2.06072673     7.24221362    -1.59811010     1.58476390    -1.77190749
Au     0.31873826     1.82765978     5.29343729     0.68791478    -0.11638528     3.26037263
Au     1.83377128     0.43220432     9.08178846     0.98063744    -1.89845835     0.21448673
Au     2.01599639     3.60919295     1.53660032     1.05730337    -1.68177509     0.08147832
Au     3.70594920     0.33234481     7.31129900     1.36359025    -2.03824322    -2.36836652
Au     3.74501303     1.82719822     1.49206446    -0.56795844    -0.07470862     0.79317941
12
Lattice="3.63000 0.00000 0.00000 0.15400 3.52500 -0.00000 0.22200 0.37800 11.39500" Properties=species:S:1:pos:R:3:force:R:3 pbc="T T T" energy=-10816.35389631767 virial="2.0200 -1.3552 4.2834 -1.3552 2.0954 -1.0438 4.2834 -1.0438 1.9513"
Au     0.39527494     3.50213137     3.45877807    -0.36208982     1.54203799    -2.40645420
Au     3.66718974     2.15468482     9.21987903     2.11739544     0.66851874    -3.98066744
Au     2.00825061     2.13104563    11.08259398     1.78964945     0.94782106    -0.76202594
Au     2.23826249     3.59344015     5.29355829    -1.49530537     0.50532554     2.63580057
Au     3.82205914     0.37598318    10.86347214    -2.71850719     0.35059907     6.67499416
Au     2.15008095     1.76979657     3.47097767    -1.22408639     0.26654151    -2.59453186
Au     1.99884257     2.06155860     7.24169193    -1.53032311     1.53732677    -1.76698459
Au     0.31632553     1.82539658     5.29937714     0.78579973     0.04477701     2.71601939
Au     1.83471193     0.43253740     9.07591754     0.81934880    -1.98529015     0.85458097
Au     2.01576111     3.61134368     1.53581729     1.11727866    -1.84127054     0.11705552
Au     3.70668259     0.33275311     7.30821524     1.30067862    -2.05928660    -2.30621956
Au     3.74547267     1.82609638     1.49403888    -0.59935017     0.02082129     0.81607611
12
Lattice="3.63000 0.00000 0.00000 0.15400 3.52500 -0.00000 0.22200 0.37800 11.39500" Properties=species:S:1:pos:R:3:force:R:3 pbc="T T T" energy=-10816.563364840307 virial="2.0149 -1.3546 4.7794 -1.3546 2.0873 -1.0628 4.7794 -1.0628 1.9455"
Au     0.39674203     3.50445664     3.45190448    -0.44503813     1.36508170    -1.88136337
Au     3.66969644     2.15387546     9.20723533     2.09481977     0.73131981    -3.05917089
Au     2.00772632     2.13084004    11.08513153     1.88249431     1.02463842    -1.25384337
Au     2.23960698     3.59234674     5.30113428    -1.58614714     0.54999746     2.07227644
Au     3.82040124     0.37651621    10.87963426    -2.60533578     0.31480127     5.62792471
Au     2.14931182     1.76889939     3.46654246    -1.21385066     0.35350505    -2.15491605
Au     1.99682199     2.06246423     7.24108469    -1.45305564     1.47825629    -1.75322628
Au     0.31395555     1.82313958     5.30543936     0.87405512     0.20441530     2.17076789
Au     1.83569102     0.43277272     9.07009889     0.67406525    -2.06501593     1.47107532
Au     2.01558093     3.61340047     1.53504138     1.16883797    -1.99639708     0.15271790
Au     3.70747833     0.33305989     7.30502409     1.23140048    -2.07721155    -2.23529154
Au     3.74590217     1.82499752     1.49604972    -0.62131070     0.11400810     0.84058467
12