64
Lattice="11.05491 0.0 0.0 0.0 11.16922 0.0 0.0 0.0 10.71698" Properties=species:S:1:pos:R:3:force:R:3 energy=None pbc="T T T"
Si       1.21654000       4.17330000       1.05473000       0.06403110      -0.04031420       1.50109000
Si       1.22508000       4.06041000       6.56204000       0.88970600       1.28120000       0.60663900
Si       1.44936000       9.69740000       1.22235000      -0.74921400       0.16810800       0.79352500
Si       1.44538000       9.90519000       6.76654000       0.08740610      -1.33918000      -0.16588000
Si       6.76549000       4.11622000       1.39585000       1.40026000       0.27402300       0.02428660
Si       6.87135000       4.14086000       6.49492000      -0.31082400       0.06733650       1.23754000
Si       6.89208000       9.87805000       1.38597000       0.10267900      -0.76927600      -0.37535600
Si       6.85388000       9.92550000       6.57431000       1.12175000      -0.54890800       0.77643000
Si      11.03860000      11.08570000       2.70753000      -0.11426600      -0.47894500      -0.32247600
Si       0.00839000      11.05050000       8.08665000      -0.44372300       1.06458000      -0.32196400
Si      11.03108030       5.73831000       2.80200000       0.59180000      -1.28472000      -0.99133100
Si      11.05063263       5.55723000       8.06660000      -0.09219840      -0.12666200      -0.41532900
Si       5.46318000      11.10227100       2.77748000      -0.41295600      -0.24792800      -0.23792000
Si       5.55693000       0.09968000       7.97901000      -0.33601100       0.25212600      -0.13767200
Si       5.46349000       5.63499000       2.51936000      -0.57657300       0.07024960       0.33897200
Si       5.44705000       5.49041000       8.17759000       0.53923800       0.22137700      -0.93096700
Si       1.40507000       1.39768000       3.93473000      -0.43721600       0.07802150       0.28390400
Si       1.39470000       1.49417000       9.20268000      -0.58407500      -1.05563000       1.12676000
Si       1.45389000       7.08276000       3.96552000      -0.07532570       0.14853700       0.14796800
Si       1.42453000       6.85022000       9.49958000      -0.76836500       1.04529000      -1.36854000
Si       6.73919000       1.31990000       4.10039000       0.43045700       0.34328900      -0.08762620
Si       6.98803000       1.57247000       9.26193000      -0.88907100      -1.01047000       0.81593300
Si       6.78786000       6.89864000       3.92408000       0.92728300      -0.02094290       0.86599700
Si       6.94535000       6.91463000       9.41017000      -0.21809100       0.16944500      -0.23980300
Si      10.84478000       2.64915000      10.56775200       0.44549200       0.23835900       0.39124400
Si      10.88903500       2.77764000       5.30919000       1.04850000      -0.69426100      -0.61416800
Si      11.04601168       8.25470000      10.70830000      -0.22247700       0.15192300       0.43308900
Si       0.13519000       8.32101000       5.50740000      -0.46335900       0.28299300      -0.50965900
Si       5.51922000       2.78870000       0.07042000       0.12937700      -0.80516500      -0.77590400
Si       5.36870000       2.72104000       5.43356000       0.05556480       0.35741500      -1.07366000
Si       5.59381000       8.42389000      10.66720000       0.12252900       0.43615200      -0.14547100
Si       5.62953000       8.31209000       5.49373000      -1.02578000      -0.41149400      -0.66481100
Si       4.14435000       4.14742000       3.82424000      -0.58588000       0.22870100       0.77870300
Si       4.14490000       4.10991000       9.55881000      -0.36197900       0.37442300      -0.92967000
Si       4.04643000       9.62741000       4.17797000       1.19529000       0.98514400       0.01271410
Si       4.23777000       9.81535000       9.26110000      -0.12492900      -0.20047900       0.54281300
Si       9.78136000       4.06564000       3.83110000      -0.59323100       0.04055030       0.03040750
Si       9.53485000       4.17219000       9.29227000      -0.03245120       0.16336100       0.38438500
Si       9.55551000       9.54425000       4.17057000       0.69271000       0.88107700      -0.56313500
Si       9.71323000       9.66055000       9.35388000      -0.29785700       0.09560620       0.23017900
Si       2.72287000      11.06926250      10.61592300       0.11835000       0.61437700      -0.59157700
Si       2.73693000      11.16150000       5.33949000      -0.47687400      -0.09437120      -0.51406000
Si       2.74483000       5.55706000      10.67687090       0.93717200      -0.04050430       1.09703000
Si       2.71253000       5.66838000       5.29877000       0.17684100      -1.15555000       0.02596270
Si       8.21928000      11.09810000      10.56314700       0.31490900       0.21315300       0.35589000
Si       8.37366000       0.14792000       5.30449000      -0.69694500      -1.21125000       0.01849170
Si       8.28307000       5.67168000       0.16151200      -0.54287200      -1.45766000      -0.81078600
Si       8.41050000       5.27395000       5.20771000      -0.76193400       1.68731000       0.12739200
Si       4.21104000       1.18038000       1.14980000      -0.42418800       0.83425200       1.00673000
Si       3.92186000       1.37410000       6.64966000       0.91034800       0.61091900       1.02459000
Si       4.13419000       7.28376000       1.32906000       0.18724300      -2.10266000      -0.59922800
Si       4.06613000       6.91619000       6.77499000       0.85607500      -0.00241466      -0.18149800
Si       9.54037000       1.21810000       1.35343000       0.32263900       0.35728200      -0.29816600
Si       9.66792000       1.41508000       6.67638000       0.56421600      -0.58267900       0.26730800
Si       9.61116000       6.91206000       1.48935000       0.56254100       0.92817800      -0.67140700
Si       9.62425000       6.90079000       6.60966000       0.24081900      -0.36671300       0.22866700
Si       2.72282000       2.75960000       2.43516000      -0.01365250      -0.17899700       0.08269920
Si       2.70954000       2.96276000       8.06979000       0.37257800      -0.46295700      -0.64847600
Si       2.86231000       8.50995000       2.66982000      -1.45069000      -0.43836300       0.10069000
Si       2.80897000       8.33880000       8.12250000      -0.62221200       0.07910250      -0.24085500
Si       8.18662000       2.62274000       2.74731000       0.06539010       0.55784200      -0.57520400
Si       8.26366000       2.76269000       7.83228000       0.01585950       0.96089300       0.34464800
Si       8.19721000       8.30687000       2.63181000      -0.06953790       0.40030700       0.55532300
Si       8.35478000       8.26517000       8.04883000      -0.71429000       0.46558500      -0.55541200
64
Lattice="10.96308 0.0 0.0 0.0 11.07643 0.0 0.0 0.0 10.62795" Properties=species:S:1:pos:R:3:force:R:3 energy=None pbc="T T T"
Si       1.59061000       4.28512000       1.50546000      -0.52039400      -0.39834000      -1.05826000
Si       1.38682000       4.11842000       6.54768000       0.05987200       0.10651500       0.35854100
Si       1.33202000       9.67719000       1.49030000      -0.33665500       0.17757000      -0.58280500
Si       1.42966000       9.66796000       6.67259000      -0.24573000       0.36653500       0.10194300
Si       6.68151000       4.15825000       1.32967000       0.23532400       0.06576320       0.13514100
Si       6.97903000       4.06791000       6.65020000      -0.40356300       0.79284200       0.34154000
Si       6.91817000       9.62801000       1.31315000      -0.45978400       1.31390000      -0.31776300
Si       6.87900000       9.73988000       6.59932000       0.85116500       0.02879960       0.87463800
Si      10.95960000       0.19647200       2.70606000      -0.07187190      -0.93770000      -0.24090500
Si       0.07013130      11.06900000       8.04020000      -0.12491600       0.02665780      -0.21425700
Si      10.92480000       5.45903000       2.67835000       0.39742700       0.69607000      -0.24837600
Si       0.16343400       5.47241000       7.96054000      -0.74314000      -0.08347400       0.41808600
Si       5.46923000       0.01497000       2.68103000       0.85488700       0.28877200      -0.20325200
Si       5.53807000       0.00497000       8.06516000       0.04883410      -0.03001520      -0.50082500
Si       5.27464000       5.63037000       2.63480000       0.84435300      -0.46642500       0.41201700
Si       5.55175000       5.56010000       7.90524000       0.59879500       0.05047300      -0.13068000
Si       1.46508000       1.42504000       3.93646000      -0.08534150       0.49555900       0.65822200
Si       1.51569000       1.31670000       9.33305000      -1.47558000       0.90870200      -0.46014900
Si       1.23663000       6.91456000       3.98588000       0.79718100      -0.02419000       0.02881260
Si       1.43883000       6.86256000       9.32975000      -1.00212000       0.22362300       0.06508130
Si       6.79287000       1.51846000       4.18973000       0.02905040      -0.93144800      -0.64396400
Si       6.83426000       1.37880000       9.41072000       0.14693400      -0.03502770      -0.08461480
Si       6.81884000       7.06994000       3.77156000      -0.34099000      -0.99414900       1.14001000
Si       6.96027000       6.92969000       9.19414000      -1.02784000      -0.47196900       1.04998000
Si       0.23321400       2.75698000       0.13352500       0.19476100      -0.01011690       0.11132100
Si      10.86430000       2.84457000       5.30231000       0.37574600      -0.41070700      -0.32969900
Si      10.96210000       8.21376000       0.06199110       0.16458700       0.33584500      -0.09912190
Si       0.09246200       8.35013000       5.36019000      -0.89994200      -0.13334600      -0.11949600
Si       5.36047000       2.79920000      10.51630000       0.54213400      -0.48953600       0.86071300
Si       5.40511000       2.95040000       5.40512000       0.01242970      -0.45430400      -0.28680300
Si       5.48450000       8.33174000      10.58070000       0.94456000      -0.83146600       0.50275600
Si       5.62130000       8.37220000       5.29897000      -0.76509500      -0.34371400      -0.12005700
Si       3.94924000       4.22972000       4.06978000       1.31174000       0.12074700      -0.15204300
Si       4.20674000       4.27230000       9.22283000      -1.11627000      -0.41133400       0.00739509
Si       4.21915000       9.76917000       4.04921000      -0.45685900      -0.92505200      -0.27852200
Si       4.19924000       9.68431000       9.37038000      -1.44137000       0.39287500      -0.74774500
Si       9.51720000       4.24348000       3.90911000       0.21260000      -0.72634100       0.70277000
Si       9.80774000       4.05036000       9.47653000      -0.94718300       0.68397000      -0.99841600
Si       9.68212000       9.75380000       3.98630000      -0.07188090      -0.49573400      -0.26778600
Si       9.61074000       9.75799000       9.43748000       0.14684700      -0.41891100      -0.45762400
Si       2.57286000      10.99290000      10.61340000       1.64370000      -0.77444400       0.80759600
Si       2.73295000      10.99300000       5.24636000       0.16617200       0.84878700       0.85849800
Si       2.84862000       5.65962000      10.60120000      -0.02496780      -0.91304100       0.34865600
Si       2.71619000       5.63801000       5.34845000      -0.13322300       0.25627200       0.26048800
Si       8.34546000       0.17127100       0.11527100      -0.70050300      -0.68927500       0.00452177
Si       8.36151000       0.00107000       5.29661000      -0.97370800       0.39509900       0.38185400
Si       8.16507000       5.47771000      10.60480000       0.45892600      -0.04408750       0.06977440
Si       8.07959000       5.51395000       5.12884000       0.39811700       0.62454400       0.76844100
Si       4.08186000       1.25230000       1.23501000       0.05445550       0.71032700       0.22614300
Si       4.18929000       1.38862000       6.64700000      -0.72369600      -0.23181900       0.15866700
Si       4.06381000       7.03780000       1.32682000       0.12041900       0.30487700      -0.23885300
Si       4.18852000       7.03837000       6.72105000      -0.26791300      -0.17942600      -0.62651300
Si       9.61292000       1.60257000       1.44095000      -0.21603900      -0.25366500       0.12201400
Si       9.59978000       1.38803000       6.69322000       0.21441100       0.06164100       0.32187800
Si       9.57039000       6.81314000       1.34833000      -0.21847200       0.45374100       0.00657174
Si       9.70466000       6.72107000       6.53097000      -0.67232000       0.91927200       0.45033900
Si       2.93525000       2.80113000       2.66372000      -0.70517800      -0.70777200      -0.14360400
Si       2.66115000       2.75248000       7.96426000       1.07359000       0.27092100      -0.12611500
Si       2.73646000       8.31608000       2.76131000       0.19360600       0.17225900       0.09173110
Si       2.63674000       8.25225000       8.03823000       1.32067000       0.78557400      -0.18093100
Si       8.07689000       2.86109000       2.82132000       0.18973300      -0.15023100      -1.14872000
Si       8.22522000       2.70915000       8.14813000       0.65961200       0.37909000      -0.56847400
Si       8.22645000       8.36751000       2.61586000       1.25925000      -0.16364500       0.12202100
Si       8.31999000       8.24529000       8.02717000       0.65066100       0.87307800      -1.19179000
64
Lattice="10.96813 0.0 0.0 0.0 11.08154 0.0 0.0 0.0 10.63285" Properties=species:S:1:pos:R:3:force:R:3 energy=None pbc="T T T"
Si       1.59255000       4.31466000       1.40599000      -1.13141000      -0.13484100      -0.57172400
Si       1.39887000       4.07929000       6.63365000       0.24990800       0.75519800       0.26413200
Si       1.20647000       9.75353000       1.27428000       0.81204400      -0.13585400       0.41045800
Si       1.45611000       9.71697000       6.59800000      -0.53389000       0.54341200      -0.07420110
Si       6.82715000       3.88228000       1.33173000       0.69737300       1.74810000       0.63471600
Si       6.83411000       4.09538000       6.73804000      -0.82184800       1.13728000      -1.45110000
Si       7.15025000       9.56679000       1.14077000      -0.55444600       1.26901000       0.57497000
Si       7.04946000       9.75465000       6.73631000      -1.34990000      -0.32339800      -1.02324000
Si      10.83130000       0.07386000       2.65671000       0.21947600      -0.56774900       0.19217400
Si       0.04267000      11.06549230       7.93572000       0.23504000       0.41810400       0.30471800
Si       0.08770400       5.72840000       2.77248000       0.33087900      -1.28482000      -0.25051900
Si      10.93024250       5.51303000       7.90329000       0.83093400       0.52501400       0.36496100
Si       5.65449000      10.83240000       2.51674000      -0.32057400       0.83153600       0.53879500
Si       5.62036000      11.06498020       7.94094000      -1.13798000       0.27971500       0.01830690
Si       5.55883000       5.44838000       2.64834000      -0.80901800      -0.24508300       0.11956800
Si       5.45296000       5.59469000       8.06547000       0.65478500       0.42242900      -0.49344400
Si       1.27815000       1.34860000       3.98617000      -0.00816142       0.44043100      -0.15035700
Si       1.46613000       1.37424000       9.27209000      -0.77120500      -1.01971000       0.43537800
Si       1.31121000       7.05378000       4.19804000       1.23600000      -0.56644900      -0.75460100
Si       1.41704000       6.97560000       9.30237000       0.10860500      -0.37873600      -0.53198900
Si       6.90985000       1.24550000       4.03729000       0.15309000       0.12283200      -0.14956900
Si       6.72847000       1.45339000       9.27479000       0.63038900      -0.29038200       0.43240600
Si       6.79707000       6.81681000       4.05569000       0.69207300       0.50876400      -0.26650600
Si       6.99689000       7.08242000       9.32532000      -0.73085600      -0.90858400      -0.23046600
Si       0.17041300       2.78263000      10.55250000      -0.96393100       1.01794000       0.82969200
Si      10.91680000       2.93295000       5.23351000      -0.40734400      -0.84988600       0.25468600
Si       0.03215640       8.29561000      10.53470000      -0.85777300       0.05029500       0.93058000
Si       0.01875160       8.27281000       5.53618000      -0.29304400       0.66138800      -0.37686300
Si       5.44980000       2.67478000       0.08755000      -1.23034000       0.14226700      -0.80920300
Si       5.40057000       2.71218000       5.25196000       0.31444900      -0.15881300       0.70957600
Si       5.65814000       8.30960000       0.07508860      -0.97518900       0.18271000      -0.70113000
Si       5.52452000       8.34491000       5.29220000       0.33031800       0.06334210       0.76473600
Si       3.95439000       4.11724000       4.04493000       0.58927900       0.34851000      -0.42674000
Si       4.03188000       4.20351000       9.22408000       0.51269700      -0.69898900       0.86445000
Si       4.19118000       9.59033000       3.89592000       0.03916180       0.63858100       0.13698500
Si       4.22928000       9.75745000       9.36654000       0.66532700      -0.62630900      -0.34843900
Si       9.50968000       4.24334000       3.73541000       1.11322000       0.15976200       1.26257000
Si       9.51989000       4.40590000       9.30719000       0.13450700      -1.56224000       0.59940200
Si       9.65036000       9.62248000       4.16424000       0.34913900      -0.05589350      -1.19597000
Si       9.60257000       9.67978000       9.21016000       0.15608600       0.36567100       0.53467700
Si       2.75180000      10.95092700      10.53740000      -0.44296600       1.15614000       1.20098000
Si       2.71581000      10.98350000       5.07353000       0.24835600       0.26909500       0.92533700
Si       2.90024000       5.69066000      10.58392170      -0.67355100      -0.40422600       0.30549800
Si       2.87846000       5.74409000       5.49326000      -1.06035000      -1.03469000      -0.71011400
Si       8.27832000       0.16053100      10.54200000       0.08522010      -0.45424200       0.05858970
Si       8.45780000      10.98720000       5.46106000      -1.00827000       1.55730000       0.10110900
Si       8.15824000       5.67274000       0.13991000       0.35716400      -0.66111700       0.22493500
Si       8.37382000       5.52343000       5.29294000      -1.30089000      -0.24848100       0.41445800
Si       4.05535000       1.32686000       1.47866000       0.70174000      -0.96709000      -1.20470000
Si       3.95346000       1.26944000       6.63364000       0.84449900       0.28273400      -0.26679000
Si       4.24168000       6.97683000       1.32143000      -0.30410000      -0.11384800       0.56243900
Si       4.09683000       7.17023000       6.78918000       0.65871100      -0.39729000       0.00040356
Si       9.57308000       1.53224000       1.36129000       0.77979100      -0.55679900      -1.05644000
Si       9.52426000       1.52719000       6.94036000       0.57467800      -0.21054400      -1.60481000
Si       9.62932000       6.98241000       1.58283000       0.01023600       0.12098400      -1.83343000
Si       9.57448000       6.93690000       6.69789000       0.09513960      -0.30248100      -0.17522500
Si       2.64528000       2.63282000       2.61985000       0.10519200       0.96471800       0.94287700
Si       2.67999000       2.71464000       8.05722000       0.76481000       0.77887300      -1.26281000
Si       2.68489000       8.35397000       2.70010000      -0.08290490      -0.45221900      -0.60012500
Si       2.69419000       8.57463000       8.07605000       0.58833900      -1.10398000       0.18640200
Si       8.26869000       2.71827000       2.70868000      -1.11100000      -0.11116900       0.02298790
Si       8.04884000       2.86696000       8.09583000       1.27775000      -0.05783510       0.60602900
Si       8.20048000       8.36073000       2.70072000       0.31709200      -0.44776900       1.12721000
Si       8.26603000       8.34178000       7.90501000       0.41745600      -0.43061800       0.66331400
64
Lattice="11.06518 0.0 0.0 0.0 11.17959 0.0 0.0 0.0 10.72693" Properties=species:S:1:pos:R:3:force:R:3 energy=None pbc="T T T"
Si       1.14156000       4.18674000       1.20649000       1.10719000      -0.26331600       0.49283600
Si       1.36600000       4.13222000       6.69916000      -0.45727100       0.51007600      -0.12303500
Si       1.49889000       9.82633000       1.24572000      -1.10413000      -0.30203200       0.24436000
Si       1.43706000       9.75857000       6.69758000      -0.87884200      -0.61071000       0.55264400
Si       7.07102000       4.29034000       1.33380000      -0.85408100      -1.06954000       0.47833400
Si       6.93027000       4.21544000       6.76548000      -1.54744000       0.05583310      -0.87034500
Si       6.96291000       9.77140000       1.34066000      -1.38000000       0.52583100      -0.81486300
Si       6.85949000       9.88036000       6.72620000       0.60656000      -0.96584300      -0.54272800
Si      11.02080000      11.00130000       2.68888000       0.11673100       0.15837400      -0.35151000
Si      10.94180000      11.05750000       8.09009000       1.18631000       0.35717200      -0.17917500
Si      10.91256200       5.44113000       2.63399000       1.00003000       1.36207000       0.00562013
Si      11.02754730       5.59839000       8.09101000       0.63879700      -0.36297500      -0.14235300
Si       5.48433000      11.15156790       2.57988000       0.04671170       0.02719590       0.74984600
Si       5.53314000      11.13260000       8.04500000      -0.64890600       0.32281100       0.01065490
Si       5.49894000       5.59586000       2.61597000       0.08216910      -0.55780300       0.35958300
Si       5.38319000       5.61290000       7.98724000       0.87984800      -0.83744800       0.44931500
Si       1.23945000       1.41538000       3.80742000      -0.20409700      -0.80061600       2.08443000
Si       1.40674000       1.46602000       9.35564000      -1.21021000      -0.27566400      -0.20452200
Si       1.35360000       6.94211000       4.02072000      -0.18596100      -0.22783300      -0.87139700
Si       1.38413000       7.07205000       9.42039000       0.17651100      -0.86201400      -0.53980600
Si       6.95102000       1.38519000       4.02236000      -0.31856900      -0.05089770      -0.88799400
Si       6.87451000       1.33820000       9.29749000       0.22753200       0.77385900       0.22344600
Si       7.00906000       6.87373000       3.95480000      -1.32044000       1.43316000      -0.49454200
Si       6.76215000       6.98019000       9.30793000       0.68417300       0.13258100       0.36444800
Si      10.86085100       2.71535000       0.04226940       0.64655200      -0.36678900      -0.65612500
Si      10.91189700       2.77535000       5.43488000       0.86298000      -0.29108600      -0.57364500
Si       0.00444814       8.36438000      10.72630000      -0.06593560       0.50184800       0.03599020
Si       0.00932000       8.33909000       5.30064000      -0.28920000       0.20084300       0.57199400
Si       5.64785000       2.85559000       0.00447000      -0.39896300      -0.50375800       0.11381000
Si       5.55725000       2.65917000       5.33179000       0.19621500       1.07596000       0.16075100
Si       5.47763000       8.38143000       0.07347000       0.42179600       0.12615200      -0.64560900
Si       5.56992000       8.33982000       5.42508000       0.33800000       0.41331400      -1.07852000
Si       4.13006000       4.05692000       4.08016000      -0.28064700       0.53601900      -0.83696000
Si       4.16648000       4.12020000       9.39450000      -0.24652200       0.03764910      -0.57248800
Si       4.05860000       9.75903000       4.13385000       0.49348600      -0.21899200      -0.98425800
Si       4.16851000       9.66616000       9.26810000       0.25821300       1.35700000       1.32285000
Si       9.66854000       4.12846000       3.94883000      -0.80285700       0.06695570       1.10100000
Si       9.65925000       4.05035000       9.25940000      -0.66695900       0.65992200       0.35955900
Si       9.53590000       9.75376000       4.08329000       0.61477500       0.00874687      -0.06604510
Si       9.58857000       9.64646000       9.32847000       0.23577800       0.25563500       0.59260400
Si       2.69419000       0.09708730      10.63061640       0.95875200      -0.90276300       0.03192420
Si       2.73038000      11.14980000       5.47289000       0.03444340       0.80861000      -1.16900000
Si       2.70922000       5.46214000      10.61662400      -0.19255900       0.49251500       0.49813500
Si       2.70745000       5.56891000       5.33219000       0.59095900      -0.13260900       0.27743800
Si       8.19371000      11.11580000      10.61907200       0.54792700      -0.16058600       0.38026700
Si       8.24233000       0.08409540       5.39910000       0.25245600      -0.83016600      -0.00085541
Si       8.27573000       5.66950000      10.72061322       0.54899000      -0.00955598      -0.84728800
Si       8.10188000       5.58723000       5.37786000       2.05826000      -0.62143400       0.15930900
Si       4.06448000       1.38537000       1.28925000       0.35713100       0.56384500       0.11827400
Si       4.23148000       1.34584000       6.64527000      -0.80858000      -0.11069000       0.57141800
Si       4.12819000       6.88363000       1.19663000      -0.53810300       0.10084300       0.80088700
Si       4.22878000       7.01304000       6.65785000      -1.48261000      -0.39304300      -0.03999200
Si       9.64295000       1.17316000       1.35566000       0.03393290       0.18536200      -0.65501800
Si       9.68111000       1.27024000       6.76400000      -0.27015200       0.50527800      -0.50306000
Si       9.71053000       7.03148000       1.36904000      -0.61515600      -0.03214150      -0.02691050
Si       9.70620000       6.89236000       6.71095000      -0.51886900       0.37300600      -0.69310200
Si       2.57438000       2.76465000       2.64810000       1.17448000       0.81473800      -0.78281900
Si       2.74153000       2.76329000       7.95013000       0.70287900      -0.05879180       0.31251400
Si       2.71454000       8.36345000       2.57185000       0.56472100      -0.39574200       0.66144000
Si       2.87449000       8.35594000       8.05193000      -1.14586000      -0.59828000      -0.89982500
Si       8.47070000       2.65846000       2.63430000      -1.35263000       0.53469400       0.12557200
Si       8.22336000       2.75694000       7.80147000       0.66762700      -0.69315900       1.74798000
Si       8.20814000       8.51101000       2.62327000       0.94088500      -1.64722000       0.88817300
Si       8.28777000       8.33446000       7.94237000      -0.46827800      -0.12439500       0.20638300
64
Lattice="10.98349 0.0 0.0 0.0 11.09706 0.0 0.0 0.0 10.64775" Properties=species:S:1:pos:R:3:force:R:3 energy=None pbc="T T T"
Si       1.25630000       4.04620000       1.54550000       0.03526480       0.67017300      -1.07604000
Si       1.34395000       4.24105000       6.57448000       0.38403900       0.36884700       1.06495000
Si       1.30585000       9.76979000       1.24104000       0.29688500       0.07625820       0.12705100
Si       1.37615000       9.63518000       6.81034000      -0.71031300       0.64041500      -0.88743700
Si       6.97411000       4.23962000       1.36995000      -0.75082700      -0.30468300       0.51833800
Si       6.83271000       4.13855000       6.60300000       0.18962900       0.33206300       0.05849320
Si       6.87933000       9.59621000       1.23099000      -0.34389500       0.52581100       0.18739200
Si       6.96036000       9.68837000       6.69305000       0.34606900       0.65710000       0.61746100
Si       0.07011000       0.01104000       2.75458000      -0.02330100       0.08065530      -0.25492900
Si      10.93500000       0.05524000       8.02654000      -0.13664800      -0.14791600      -0.34577300
Si       0.08361920       5.66020000       2.80748000      -0.91398500      -0.59170300      -0.86081000
Si      10.97083080       5.51494000       8.12940000       0.42998600       0.15495400      -1.36303000
Si       5.44405000      10.94004300       2.49830000      -0.02878760       0.99739100       0.85570600
Si       5.65920000       0.03054000       8.05586000       0.04322590       0.24305800      -0.08789470
Si       5.54476000       5.74207000       2.70521000      -0.13382300      -1.20535000      -0.21573900
Si       5.50612000       5.51778000       7.99156000      -0.51247700      -0.17028300      -0.18167300
Si       1.49558000       1.41745000       4.14183000      -0.84930800       0.11362200      -0.48345700
Si       1.40566000       1.53649000       9.22724000      -0.82308100      -0.69034800       0.78535200
Si       1.38049000       7.08228000       3.95098000       0.65797500      -0.19024400       0.00209894
Si       1.27721000       6.86409000       9.42021000       1.32412000      -0.03151610      -0.27220600
Si       6.99447000       1.37449000       3.89922000      -0.82256600      -0.52597000       0.09480660
Si       7.03794000       1.60599000       9.37084000      -0.72479900      -0.97691600       0.03704320
Si       6.84855000       7.08979000       4.03010000       0.21224900      -0.19688500       0.25006600