ITEM: TIMESTEP
190
ITEM: NUMBER OF ATOMS
64
ITEM: BOX BOUNDS xy xz yz pp pp pp
-3.1140387182500001e-01 1.1087275714303001e+01 -1.5890782108999999e-02
0.0000000000000000e+00 1.1635512432473000e+01 -2.9551308971599999e-01
0.0000000000000000e+00 1.1127300537966001e+01 2.9068760474299998e-01
ITEM: ATOMS id type x y z fx fy fz
1 1 1.35379 4.40091 1.47618 -0.904083 -1.15955 -0.537717
2 1 1.17013 9.89938 6.79648 1.12391 -0.00375729 0.940617
3 1 6.89515 4.27253 1.4903 -0.676504 0.315632 0.0898431
4 1 6.82003 4.11969 6.96205 -0.868101 -0.184546 -0.349959
5 1 6.71883 9.75824 1.0841 1.34754 0.5754 0.0274173
6 1 6.662 9.78192 6.57318 0.802205 -0.0559302 0.500511
7 1 -0.00379547 11.1027 2.46599 -0.631402 0.201557 1.34163
8 1 -0.0861878 11.2558 8.2405 -0.961017 0.513666 -0.289106
9 1 10.9258 5.86809 2.74024 -0.292323 -0.841724 -0.489065
10 1 10.744 5.78527 8.21438 0.400212 -0.410586 -1.09006
11 1 5.46613 11.2751 2.50426 -0.318451 0.790672 -0.555926
12 1 5.45886 11.1722 7.9328 -1.13 -0.860495 1.4048
13 1 5.25519 5.56786 2.76303 -0.15477 0.267423 -0.483277
14 1 1.06098 4.17627 6.83273 -0.972189 -0.342385 0.120414
15 1 1.22684 9.68763 1.0917 -0.222187 -0.273829 -0.655712
16 1 5.31527 5.6082 8.07191 0.372104 0.459004 -0.48401
17 1 1.13376 7.20919 4.17966 0.264209 -0.772121 -0.166701
18 1 1.16674 7.10429 9.42253 0.0425024 -0.301319 0.705322
19 1 6.79421 1.41269 3.88821 -0.477459 -0.330526 1.15208
20 1 7.39729 1.86734 10.207 0.976986 -1.13082 2.65684
21 1 6.75909 6.93062 4.01121 0.0914713 0.417933 0.16185
22 1 6.62049 7.00119 9.47064 -0.538736 0.797939 0.76013
23 1 -0.0741179 3.16301 10.941 -0.930409 -0.457939 0.358566
24 1 0.197374 2.03646 5.79387 -1.14221 2.14733 0.267394
25 1 10.7713 8.34888 10.7448 0.290886 1.99895 0.868605
26 1 10.9063 8.70006 5.49916 -1.57197 -1.65456 -1.08309
27 1 5.76998 2.76792 0.100185 -0.673624 -0.676429 -1.24179
28 1 5.41249 2.83519 5.37994 -0.224843 -0.732068 0.0852399
29 1 1.25826 1.21169 4.02844 0.344635 -0.770124 -0.953272
30 1 1.13155 1.47919 9.59592 -0.151166 1.09723 -0.496537
31 1 5.23088 8.54071 10.8366 0.69179 -1.02115 0.69317
32 1 5.36439 8.41988 5.26626 -0.654226 -0.0652373 -0.0383434
33 1 3.71126 4.19142 4.13575 1.45628 -0.543626 -0.461383
34 1 4.02666 9.47698 9.27046 0.176977 2.26444 -1.42473
35 1 9.29663 4.53177 3.79619 1.52965 0.298586 1.45417
36 1 9.43396 4.50241 9.67755 0.572041 -0.089595 0.278318
37 1 9.48343 9.9485 4.00756 0.735206 -0.933828 -1.37672
38 1 9.49053 9.98301 9.56123 -0.629491 -1.15597 -0.890778
39 1 2.1848 0.325738 11.1314 1.2226 -0.644789 0.762714
40 1 2.59662 11.2491 5.48611 0.165365 0.744239 -0.773045
41 1 2.64813 5.6821 0.0273878 0.461816 0.580786 0.252785
42 1 2.39635 5.5307 5.52187 0.196743 1.3435 -0.567977
43 1 8.23495 11.3562 10.9983 -1.7889 -0.833357 -0.00209601
44 1 8.05743 11.222 5.27018 0.00837505 0.844382 0.676712
45 1 7.90961 5.80263 11.025 0.384308 -0.0257524 0.068664
46 1 4.35865 3.9428 9.2367 0.11505 -0.392814 1.47168
47 1 4.19525 10.1795 4.09337 0.0317071 -0.608788 0.387131
48 1 8.06587 5.4657 5.50611 0.33664 1.26097 -0.70697
49 1 4.11561 7.18286 1.32481 -0.7713 -1.12608 -0.47243
50 1 3.88064 7.1075 6.71596 0.70307 -1.41394 -0.526112
51 1 9.62369 1.2598 0.819275 -0.550999 1.02127 -2.42969
52 1 9.44615 1.07387 6.85812 0.95773 -0.0599808 -0.240219
53 1 9.57253 6.993 1.14533 0.220211 0.264848 0.13321
54 1 9.37591 7.12139 6.66251 0.594676 0.222987 1.05402
55 1 2.52198 2.6698 2.66363 0.663043 0.878244 0.259689
56 1 2.77924 2.62091 8.23706 -0.00534989 -0.553752 0.278792
57 1 2.39467 8.35656 2.52122 0.423677 -0.594948 -0.0922406
58 1 2.51468 8.36787 7.98601 -0.366143 0.50597 0.686785
59 1 8.14321 2.98722 2.98157 -0.716257 -0.2761 -0.573251
60 1 8.28293 2.95424 8.45362 -0.0823939 0.417149 -1.05339
61 1 4.0265 1.42299 1.17639 0.568908 -0.212486 0.636469
62 1 4.10605 1.25825 6.74611 -0.268182 0.387478 0.0504687
63 1 8.19555 8.37634 2.53713 -0.653074 0.506109 0.514571
64 1 7.95358 8.47709 8.17452 1.05523 0.387232 -0.595004
