ITEM: TIMESTEP
240
ITEM: NUMBER OF ATOMS
64
ITEM: BOX BOUNDS xy xz yz pp pp pp
-3.1140387182500001e-01 1.1087275714303001e+01 -1.5890782108999999e-02
0.0000000000000000e+00 1.1635512432473000e+01 -2.9551308971599999e-01
0.0000000000000000e+00 1.1127300537966001e+01 2.9068760474299998e-01
ITEM: ATOMS id type x y z fx fy fz
1 1 1.16552 3.81383 0.967509 0.407832 1.43099 1.56851
2 1 1.60022 9.98243 7.09014 -1.23673 0.771109 -0.665208
3 1 6.79988 4.41403 1.3218 -1.8153 -0.71141 0.168232
4 1 5.99146 3.63846 7.4694 1.13531 2.33717 0.00467936
5 1 6.67262 10.063 1.0368 0.0166671 -0.703159 0.637162
6 1 6.88627 9.73486 6.70263 -0.70864 0.274096 0.256927
7 1 0.29112 11.0429 3.30622 -0.139098 -1.13022 -1.38063
8 1 0.0184122 11.3804 8.13289 -1.62804 -0.141482 -0.0233239
9 1 10.7001 5.33576 2.26671 0.138896 0.255197 -0.546645
10 1 10.7997 5.69747 8.13616 0.257794 0.125065 -1.22855
11 1 5.55658 11.3524 2.84377 1.48508 0.00864513 0.433529
12 1 5.40074 10.9216 8.00829 1.10934 0.716631 -1.15676
13 1 5.09463 5.50426 2.48448 0.307343 0.70625 0.59275
14 1 1.05878 4.26604 6.70011 -0.512252 0.492797 -1.0882
15 1 1.35338 9.79985 1.27771 0.588528 0.793225 1.13842
16 1 5.58539 5.65365 8.54475 -0.380348 -2.82149 -3.30483
17 1 0.923046 6.71926 3.48582 1.13524 0.328847 0.616223
18 1 1.45667 6.94063 9.34645 -0.8408 -2.33198 0.00134352
19 1 6.90943 1.48737 4.44459 -1.33822 -0.229753 -0.750184
20 1 7.02915 1.43956 10.3518 3.43106 2.37045 2.37328
21 1 6.09426 6.95614 4.2248 0.50118 -0.372806 -1.04405
22 1 6.62883 7.21237 9.72058 1.79482 -0.473829 -1.47786
23 1 0.155305 3.0278 10.212 -5.42428 -0.00355244 1.09575
24 1 10.8077 2.95703 5.21846 0.204034 -0.822249 1.62996
25 1 -0.212822 8.88815 10.9959 -3.37048 0.0740856 0.715609
26 1 10.6007 8.20479 4.78253 -0.644369 -0.337554 1.25155
27 1 5.62274 2.59252 0.0813529 0.830814 -0.0699511 0.617253
28 1 5.17153 2.63686 5.74556 -0.16895 0.68864 -1.28845
29 1 1.40708 1.44931 4.32629 -0.566166 1.19695 -1.03873
30 1 1.32547 1.22349 9.55026 0.249336 0.136028 0.141396
31 1 5.36824 8.43097 10.9378 -1.32605 2.03938 0.651451
32 1 5.1863 8.51781 5.61253 0.564404 -0.042416 -1.10623
33 1 3.87493 4.04728 3.97105 0.941308 0.854996 1.26711
34 1 4.24632 9.62304 9.21946 -1.03574 -1.51667 1.36389
35 1 9.30705 4.40903 4.03859 0.296854 -0.484523 -0.381477
36 1 9.23309 4.77683 9.58765 0.840784 -1.78469 -0.364841
37 1 9.42257 9.88561 3.72371 0.161301 1.40778 1.88366
38 1 9.29526 10.0884 9.48268 1.91087 -0.675557 -0.714601
39 1 2.64239 0.0994667 0.20757 0.598659 -0.488352 0.368317
40 1 2.66543 11.4237 5.5941 0.0381399 -0.464878 -0.283843
41 1 2.27807 5.38937 10.8263 -0.114242 1.24291 0.363096
42 1 2.38627 5.57535 5.0388 -1.37862 -0.563208 0.828556
43 1 8.22875 10.9857 -0.0519198 1.89026 -0.183102 -0.124446
44 1 8.22723 11.2312 5.48394 1.52298 0.643066 -0.275124
45 1 7.94643 5.97063 11.1213 0.136993 1.0232 -0.269727
46 1 4.99898 3.664 9.07565 -1.46099 0.329868 1.21896
47 1 4.15575 10.1217 4.24821 0.192525 0.187386 0.189769
48 1 8.1518 6.21068 4.86165 0.440871 -0.258642 2.01003
49 1 3.89799 6.72168 0.683546 -0.0556779 0.0362498 1.92217
50 1 3.24787 7.42539 6.18638 0.426923 -0.0860033 0.563996
51 1 9.33336 1.34428 0.437271 -0.840484 -0.465564 -0.121271
52 1 9.74037 1.39406 6.75587 -0.626694 -0.137849 -0.43696
53 1 9.55252 7.30805 1.13733 0.951099 -0.491954 -0.877063
54 1 9.46021 7.08159 6.69238 -0.290526 0.276116 -1.39228
55 1 2.64431 2.83356 2.6183 -0.932723 -1.91033 -0.0891224
56 1 3.09432 2.41977 8.93133 0.930618 -0.763889 -1.69178
57 1 2.50124 7.94944 2.16789 -0.35347 0.226628 -0.571486
58 1 2.52613 8.35169 8.09163 1.5084 0.554846 -0.0266334
59 1 7.66713 3.18562 2.97181 0.698478 -0.45982 1.42636
60 1 8.81381 2.82067 10.4489 1.44144 -2.13847 -2.61603
61 1 4.17042 1.29929 1.60793 -0.826712 0.962059 -1.04856
62 1 4.02052 1.18144 7.0583 0.825699 1.01011 0.747394
63 1 8.86889 9.57282 1.53438 -2.13871 -0.540328 -1.10164
64 1 8.09378 8.41317 8.14843 0.242455 0.104922 0.439216
