ITEM: TIMESTEP
50
ITEM: NUMBER OF ATOMS
64
ITEM: BOX BOUNDS xy xz yz pp pp pp
-3.1140387182500001e-01 1.1087275714303001e+01 -1.5890782108999999e-02
0.0000000000000000e+00 1.1635512432473000e+01 -2.9551308971599999e-01
0.0000000000000000e+00 1.1127300537966001e+01 2.9068760474299998e-01
ITEM: ATOMS id type x y z fx fy fz
1 1 1.24741 4.07723 1.18951 0.326084 0.04505 0.283378
2 1 1.16409 9.88526 6.80761 -0.195319 0.142335 -0.251152
3 1 6.76896 4.18157 1.19411 1.5764 -0.127193 0.759657
4 1 6.68549 4.16831 6.97306 0.940648 0.459073 -1.32969
5 1 6.86896 9.94995 1.12903 -0.0615558 -1.43995 0.579302
6 1 6.7677 9.86095 6.76555 -0.136139 0.23803 0.374475
7 1 0.011364 11.081 2.77315 -0.919871 1.05441 -0.848979
8 1 10.8339 11.3184 8.22525 -0.118331 0.274337 -0.538666
9 1 11.0187 5.49116 2.60229 -0.871523 0.367072 0.585005
10 1 10.8728 5.60413 8.03589 0.115901 1.18122 1.11644
11 1 5.60792 11.2135 2.67269 -0.854983 0.833792 0.0266434
12 1 5.29472 11.3244 8.04932 0.181036 0.519043 0.108927
13 1 5.47763 5.52415 2.80028 0.243231 0.722804 -1.23694
14 1 1.34997 4.2617 6.88913 -1.08598 -0.369168 -1.38863
15 1 1.21477 9.81313 1.19763 0.836644 -0.439736 -0.0718509
16 1 5.43648 5.67907 8.20687 -1.72635 0.559318 -0.0143067
17 1 1.30252 6.97987 3.95989 0.00343033 -0.656409 0.00611417
18 1 1.03499 7.18161 9.55634 -0.193827 -1.57865 0.0922484
19 1 6.84055 1.39164 4.04832 0.250018 0.0453127 -0.466045
20 1 6.45503 1.48153 9.57616 1.13976 -0.302977 0.307027
21 1 6.83076 7.12478 4.05591 0.693629 -0.846374 -1.26271
22 1 6.57402 7.20406 9.61982 1.52189 0.0061385 -0.349346
23 1 10.6968 2.96099 10.9741 0.125287 -0.810263 -0.23035
24 1 10.9173 2.89208 5.38942 0.89093 -0.774719 0.620347
25 1 -0.299745 8.50811 11.0275 -0.886205 0.542122 -3.2507e-05
26 1 -0.109731 8.32818 5.33712 -0.13574 0.899209 0.510455
27 1 5.20856 3.00669 11.0601 -0.557937 -0.0637402 -1.3715
28 1 5.43767 2.81097 5.45832 -0.74046 0.48948 -0.790592
29 1 1.26954 1.37038 3.99433 -0.136366 -0.0979133 1.04959
30 1 1.04289 1.50327 9.56526 -0.402489 0.306862 0.300037
31 1 5.30462 8.56397 11.0238 -0.210344 0.483538 -0.270295
32 1 5.51911 8.34335 5.42765 -1.55073 1.37355 0.398908
33 1 3.93078 4.25147 4.00353 1.45483 -1.36434 0.275815
34 1 4.24201 9.63976 9.2469 -1.33583 0.0147135 0.578307
35 1 9.5021 4.18188 4.0764 0.0999261 0.204459 -0.96379
36 1 9.43852 4.36942 9.49607 -0.244745 -0.427381 0.449277
37 1 9.57883 9.77233 4.00359 0.123736 0.45606 0.827696
38 1 9.38971 9.95363 9.61977 1.09649 0.411688 0.0590284
39 1 2.53355 0.157255 0.100366 0.688272 -0.818141 0.120983
40 1 2.64127 11.3186 5.51195 -0.535062 0.132125 -0.6726
41 1 2.42182 5.6563 10.9388 0.117423 1.44026 0.235427
42 1 2.73448 5.57525 5.38421 -1.38747 0.750532 0.367831
43 1 8.0013 11.3713 10.8508 -0.306083 1.37606 0.411891
44 1 8.0797 11.2178 5.38594 1.62528 0.910024 -0.0293227
45 1 8.08987 5.77258 10.9318 -1.32655 -0.256527 0.00871656
46 1 3.8024 4.45318 9.52371 0.934725 -1.74733 0.218284
47 1 4.27482 10.109 4.2695 -0.145605 -0.709769 -0.168093
48 1 8.1115 5.63627 5.45931 -0.0246908 -0.166984 0.362056
49 1 4.20811 6.8593 1.17107 -1.04664 -0.55341 0.204751
50 1 3.9203 7.05177 6.7625 0.588207 0.151275 0.468561
51 1 9.61682 1.14878 1.2884 0.710232 -0.0435738 -0.448859
52 1 9.49003 1.52901 6.81693 0.207402 -1.42426 -0.178468
53 1 9.47024 6.90315 1.28581 1.79854 0.156266 -0.145568
54 1 9.49504 7.14779 6.8225 0.0876461 -0.665052 -0.33322
55 1 2.65043 2.76417 2.63475 0.441456 -0.323648 -0.143238
56 1 2.53135 2.77658 8.24474 0.547857 0.586335 0.110049
57 1 2.46099 8.08212 2.21935 0.266827 0.580555 0.373924
58 1 2.4097 8.43282 8.19734 1.71887 0.439192 -0.680059
59 1 8.29835 2.67999 2.50603 -0.884702 0.672861 1.01907
60 1 8.08919 2.77265 8.29504 -0.408606 0.361791 -0.150585
61 1 4.2119 1.3537 1.33807 -1.09888 -0.263794 0.307078
62 1 3.91357 1.51448 6.72259 0.330509 -0.73924 0.906026
63 1 8.28756 8.51935 2.53745 -1.3036 -0.815302 0.419144
64 1 8.16576 8.614 8.25063 -0.850509 -1.36107 -0.507574
