ITEM: TIMESTEP
70
ITEM: NUMBER OF ATOMS
64
ITEM: BOX BOUNDS xy xz yz pp pp pp
-3.1140387182500001e-01 1.1087275714303001e+01 -1.5890782108999999e-02
0.0000000000000000e+00 1.1635512432473000e+01 -2.9551308971599999e-01
0.0000000000000000e+00 1.1127300537966001e+01 2.9068760474299998e-01
ITEM: ATOMS id type x y z fx fy fz
1 1 1.3587 4.22073 1.15027 -0.424798 -0.265201 0.608076
2 1 1.17706 10.0666 6.87214 0.389067 -0.331616 0.0471287
3 1 6.83942 4.17923 1.36805 -1.0139 -0.50634 -1.07205
4 1 6.92062 4.11981 6.69477 -1.7151 0.242428 0.823948
5 1 6.88364 9.72646 1.16325 -0.254746 1.07744 0.23958
6 1 6.71231 9.95867 6.78045 0.331672 -0.0157229 -0.193941
7 1 -0.122325 11.1922 2.79362 0.429002 -0.485623 -0.272815
8 1 10.7797 11.3881 8.22151 0.814781 -0.246663 0.743204
9 1 10.9837 5.50146 2.76105 0.625911 0.0430973 -0.863734
10 1 10.8823 5.78366 8.03987 -0.245008 -1.3369 0.183598
11 1 5.49007 11.2781 2.5842 0.194871 -0.715366 -0.111534
12 1 5.44576 11.4159 8.24285 0.40745 -0.266153 0.0751096
13 1 5.34289 5.56546 2.65507 0.0545694 -0.496184 0.127843
14 1 1.1721 4.17431 6.72469 0.366975 0.456276 1.38941
15 1 1.15511 9.72205 1.2208 -0.185011 0.63072 -0.101668
16 1 5.36056 5.58605 8.07252 0.77363 -0.112444 0.341055
17 1 1.13903 7.07523 4.07951 -0.14249 0.627839 -0.275554
18 1 1.21667 7.06955 9.37496 -0.476053 1.26973 0.727451
19 1 6.85029 1.4892 3.8372 -0.577594 -0.638729 1.09557
20 1 6.78534 1.49112 9.70059 -0.558891 0.079252 -0.158208
21 1 6.8059 6.90681 3.92871 -0.7944 0.704968 1.05755
22 1 6.67782 7.1508 9.58362 -1.32621 -0.309794 0.16176
23 1 10.6621 3.07744 11.03 0.337932 0.434788 -0.0166022
24 1 10.981 2.67316 5.46831 -0.91561 0.601689 -0.340715
25 1 -0.31635 8.37267 10.9603 0.779042 0.572044 -0.400204
26 1 -0.213943 8.64419 5.5437 0.323307 -1.12404 -0.911138
27 1 5.25972 2.93028 10.9976 0.393702 -0.710662 1.13693
28 1 5.35385 2.84813 5.31426 0.863319 -1.1117 1.23763
29 1 1.28368 1.32879 4.16559 0.104917 0.12616 -1.2894
30 1 0.855626 1.65427 9.71314 1.44896 -0.787846 -0.570141
31 1 5.16477 8.58481 10.9788 1.00531 -0.779437 0.256571
32 1 5.37814 8.43842 5.3674 1.13181 -0.815967 -0.0552135
33 1 3.94686 4.13948 4.04576 -0.799979 1.26379 -0.309014
34 1 4.37052 9.55132 9.10093 -0.757208 1.3964 0.78942
35 1 9.58485 4.11777 4.0068 0.0418847 -0.0969633 0.998201
36 1 9.39124 4.42273 9.49577 -0.0724377 -0.180076 0.436167
37 1 9.44864 9.85326 4.11106 0.0933122 -0.3711 -1.04732
38 1 9.54104 9.87742 9.60652 -1.24718 0.487802 -0.0878479
39 1 2.47065 0.065752 0.144274 -0.0053451 -0.6791 -0.826569
40 1 2.64485 11.4021 5.52777 0.640222 -0.34955 0.386442
41 1 2.56419 5.80414 10.7963 -0.0296064 -1.56704 -0.0213645
42 1 2.46462 5.69421 5.42793 1.34552 -0.864285 -0.462448
43 1 8.18116 11.5293 11.0322 -0.467187 -1.65098 0.243329
44 1 8.22784 11.4371 5.30908 -1.54431 -0.860478 -0.160165
45 1 7.82661 5.66942 10.9787 1.77189 0.527489 0.0507145
46 1 4.02305 4.18644 9.55399 -0.898693 1.45487 -0.311053
47 1 4.32414 10.1374 4.34562 -0.816183 0.551318 -1.05478
48 1 8.17701 5.57033 5.41484 0.341263 0.228478 -0.987629
49 1 4.02017 6.81063 1.16147 0.480093 1.04949 -0.117465
50 1 3.98707 7.06475 6.78368 -0.374893 -0.178009 -0.718138
51 1 9.78585 1.32655 1.38242 -1.14804 0.295101 -0.353485
52 1 9.49483 1.28267 6.75434 0.37809 1.45589 0.996977
53 1 9.64347 6.76618 1.28364 -1.33051 0.642537 -0.299564
54 1 9.43568 7.10961 6.72466 0.367851 0.151536 0.197676
55 1 2.61885 2.70947 2.58617 0.0578028 0.26093 0.696822
56 1 2.55087 2.83642 8.3508 -0.775692 -0.148223 -0.775487
57 1 2.35329 8.08975 2.21977 0.612458 0.144002 1.23691
58 1 2.63574 8.5549 8.03121 -0.88217 -0.645087 0.159312
59 1 8.24306 2.82692 2.57063 0.753963 -0.669736 0.140099
60 1 8.16754 2.76106 8.23365 -0.106299 0.36065 -0.697625
61 1 4.02797 1.29376 1.32958 0.658147 0.201873 -0.484175
62 1 4.02568 1.43477 6.9901 -0.374076 0.577457 -1.02102
63 1 8.1186 8.31235 2.60841 1.30704 0.344275 -0.167215
64 1 8.07663 8.41931 8.18426 0.633839 1.0567 -0.0491951
