ITEM: TIMESTEP
260
ITEM: NUMBER OF ATOMS
64
ITEM: BOX BOUNDS xy xz yz pp pp pp
-3.1140387182500001e-01 1.1087275714303001e+01 -1.5890782108999999e-02
0.0000000000000000e+00 1.1635512432473000e+01 -2.9551308971599999e-01
0.0000000000000000e+00 1.1127300537966001e+01 2.9068760474299998e-01
ITEM: ATOMS id type x y z fx fy fz
1 1 1.25985 4.03054 1.14554 1.36107 -0.0157903 1.78233
2 1 1.11824 9.97986 6.79061 0.571977 0.111137 0.109334
3 1 6.84918 4.03943 1.19963 0.575008 0.370918 1.02262
4 1 6.62729 4.36963 6.82725 -0.0254999 -0.580248 -0.797218
5 1 6.85369 9.64114 1.22591 0.666136 1.26255 0.14043
6 1 6.6087 9.98488 6.81328 0.715889 -0.139085 -0.0575207
7 1 10.9382 11.0472 2.70576 -0.0738818 0.261197 -0.668545
8 1 10.9537 11.3835 8.2527 -1.05757 -0.10543 -0.419883
9 1 10.9922 5.44481 2.69251 0.835264 1.27071 -0.355803
10 1 10.8011 5.71593 8.28918 -0.648033 -0.310844 -0.600619
11 1 5.52162 11.2208 2.61051 0.144144 0.768043 -0.143638
12 1 5.32205 11.4051 8.28784 -0.371988 0.145903 -0.540196
13 1 5.48342 5.49425 2.5837 -0.437785 0.222277 0.178755
14 1 1.01533 4.28254 6.91056 2.00985 0.25331 -1.08083
15 1 1.38502 9.71695 1.34468 -0.27104 -0.179161 -1.17473
16 1 5.38233 5.8108 8.25034 -0.684871 0.770916 -0.406613
17 1 1.2499 7.16796 4.02992 -0.673722 -1.63224 -0.382127
18 1 1.07889 7.11392 9.50787 1.24958 0.763601 -0.268339
19 1 6.9077 1.48171 4.02327 -0.497274 -1.31585 -0.237917
20 1 6.67311 1.53461 9.5765 0.462741 0.0768572 0.306425
21 1 6.81834 7.01406 3.94923 -0.125555 -0.684266 0.269898
22 1 6.75631 7.27387 9.69251 -0.508106 -0.665537 -0.947573
23 1 10.8123 2.84772 11.0362 -0.945051 -0.0719595 -1.05034
24 1 10.9701 2.69772 5.45326 -0.660467 0.586555 0.0516202
25 1 10.8953 8.50013 10.9025 -0.473765 0.701679 1.08253
26 1 10.9376 8.51369 5.48216 -0.79464 -0.486429 -0.378758
27 1 5.23756 2.96248 11.0445 0.232111 -0.726799 -1.21261
28 1 5.35786 2.78673 5.39357 0.129318 0.981793 -0.151174
29 1 1.07117 1.28434 3.92751 2.02432 -0.304268 1.18434
30 1 1.07753 1.4916 9.62186 0.816529 0.698077 -0.397198
31 1 5.19422 8.67616 10.9508 0.0997512 -1.1173 0.150004
32 1 5.45771 8.49768 5.32394 -0.750525 0.242296 0.241593
33 1 3.93096 4.26799 4.0457 0.28366 -1.24334 -0.723469
34 1 3.84899 10.0404 9.63681 -0.331652 -0.121125 -1.1503
35 1 9.55115 4.16639 4.06752 0.345081 -0.501033 0.120762
36 1 9.36391 4.28132 9.59629 0.487666 -0.639912 -0.250507
37 1 9.4197 9.82176 4.09375 0.541526 -1.11459 -0.906102
38 1 9.51325 9.9594 9.5746 -0.450668 -0.292181 -0.447652
39 1 2.41278 11.4423 10.9081 0.107957 -0.561005 1.07514
40 1 2.60283 11.2277 5.39396 -0.554939 2.40973 0.603514
41 1 2.391 5.68556 10.8668 0.831252 0.261901 0.676176
42 1 2.56459 5.6952 5.39277 -0.743782 -0.479128 1.27322
43 1 8.08477 11.3553 10.9444 -0.899462 -0.033008 0.0566798
44 1 8.18245 11.2489 5.47281 -0.818291 1.22933 -0.0268791
45 1 8.02526 5.61165 11.0014 -0.366619 1.10519 -0.51542
46 1 4.02065 4.38061 9.58505 -0.968987 0.113249 0.0444976
47 1 4.01932 10.0283 4.05066 0.726938 -1.77852 -0.932885
48 1 8.13122 5.55724 5.42312 0.275618 1.2807 0.0832564
49 1 4.09108 6.87137 1.14344 -0.0691588 -0.0114964 0.251013
50 1 3.9164 7.24341 6.76536 1.03037 -1.33988 -0.0438643
51 1 9.71907 1.12504 1.21256 -0.502835 0.29519 0.311734
52 1 9.4837 1.40468 6.91507 0.433196 -0.321008 -0.913888
53 1 9.66295 6.82479 1.11043 0.769088 -0.115141 0.930886
54 1 9.45664 7.13429 6.89604 0.402613 -1.16188 -1.54169
55 1 2.73918 2.5315 2.61734 -0.766776 1.78366 -0.24565
56 1 2.61154 2.95177 8.29987 -0.709708 -0.403954 -0.882709
57 1 2.81094 8.31983 2.66049 -0.0432536 0.825838 -0.0256826
58 1 2.53991 8.59831 8.06827 -0.299533 -0.174659 1.59529
59 1 8.36644 2.72305 2.54075 -0.522314 -0.460565 0.458955
60 1 8.04006 2.92 8.00009 0.0292175 -0.299164 1.94915
61 1 4.10842 1.22711 1.07316 0.279107 -0.328977 1.48226
62 1 4.01038 1.50606 6.83304 -1.25622 -1.14297 -0.240234
63 1 8.27346 8.19924 2.52148 0.246379 1.17449 0.777076
64 1 8.08762 8.54442 8.05176 -0.379381 0.891633 1.90908
