ITEM: TIMESTEP
510
ITEM: NUMBER OF ATOMS
64
ITEM: BOX BOUNDS xy xz yz pp pp pp
-3.1140387182500001e-01 1.1087275714303001e+01 -1.5890782108999999e-02
0.0000000000000000e+00 1.1635512432473000e+01 -2.9551308971599999e-01
0.0000000000000000e+00 1.1127300537966001e+01 2.9068760474299998e-01
ITEM: ATOMS id type x y z fx fy fz
1 1 1.16943 4.01412 1.10932 1.73465 0.838899 1.1911
2 1 1.20587 9.90494 6.77346 -1.23246 1.11464 0.861289
3 1 6.86549 4.06115 1.34612 0.0689492 1.0498 -1.18455
4 1 6.8274 4.18778 6.90534 -0.417161 1.39133 -0.404604
5 1 6.78337 9.69491 1.21454 0.740403 0.671015 1.34526
6 1 6.73052 10.0212 6.93977 -0.634475 -0.070757 -0.989946
7 1 11.1605 11.1918 2.56508 -1.17589 0.181952 0.372349
8 1 10.7057 11.3512 8.26534 2.01688 -0.827683 -1.01956
9 1 10.9181 5.37263 2.60534 0.843701 0.567685 0.64766
10 1 10.9166 5.86543 8.2359 -0.468995 -1.3382 -0.312071
11 1 5.43438 11.1773 2.70632 -0.211069 -0.367971 -0.827621
12 1 5.29922 11.5725 8.24728 -0.0274549 -1.77388 -0.840812
13 1 5.52562 5.55359 2.83823 -0.234182 0.303423 -1.26894
14 1 1.04723 4.21084 6.81542 0.938974 2.00025 -0.168127
15 1 1.23886 9.70982 1.12619 1.26032 0.270726 0.503043
16 1 5.19364 5.67665 8.18866 1.3756 -0.614138 -0.165664
17 1 1.35316 6.9476 3.90036 -0.965757 -0.141793 0.0575309
18 1 1.12411 7.2833 9.65766 0.0223818 -0.158063 -0.692634
19 1 6.71192 1.33461 3.98108 1.0016 -0.293604 0.712757
20 1 6.62013 1.50175 9.54054 0.825917 0.865116 1.57549
21 1 6.86821 7.18765 4.04314 0.146721 -0.746133 0.319918
22 1 6.64048 7.18214 9.41909 0.11132 -0.0565506 0.890635
23 1 10.7673 2.85638 10.9795 -0.741236 -1.15714 -0.717537
24 1 10.9793 2.7334 5.50909 -1.29361 -0.0614391 -1.96769
25 1 10.6466 8.5592 10.9908 1.02417 -0.330781 0.0205252
26 1 11.0316 8.44923 5.31591 0.150248 -0.276345 0.00760966
27 1 5.21052 2.97595 10.9711 0.211622 -0.591965 0.219685
28 1 5.50199 2.8401 5.39655 -1.26108 -0.451318 0.629494
29 1 1.30755 1.4836 3.87649 -0.152757 -1.11051 1.46229
30 1 1.16619 1.40785 9.57961 -0.384115 0.987958 -0.495703
31 1 5.37713 8.52809 11.0087 -1.87033 -0.101362 -1.48945
32 1 5.37728 8.4418 5.54147 0.225196 1.16111 -0.958787
33 1 3.96719 4.18667 4.03403 0.767887 0.0530976 0.503124
34 1 3.98961 10.0258 9.46577 -0.395112 -0.698776 1.51774
35 1 9.40587 4.10447 4.05114 1.5834 0.0301076 0.648273
36 1 9.44628 4.33543 9.56892 0.0764007 0.573402 0.240468
37 1 9.65648 9.88768 4.04649 -0.121124 0.132658 -0.617024
38 1 9.34185 9.98367 9.69876 0.0120333 0.283542 -0.556345
39 1 2.51991 11.3947 10.9514 -0.193373 -0.502363 -0.205552
40 1 2.6027 11.3229 5.40832 0.0248298 0.646065 -0.272806
41 1 2.39809 5.74324 10.8999 0.438168 0.0429895 0.990754
42 1 2.63679 5.62881 5.44458 -0.811523 -0.444055 -0.0733022
43 1 7.85223 11.3254 10.9935 0.228428 0.708348 -0.378231
44 1 8.1441 11.2653 5.44809 -0.308671 0.259818 -0.732562
45 1 7.94293 5.84475 10.895 -0.0419521 -1.64871 0.77696
46 1 3.8038 4.27272 9.55768 0.0663797 0.610525 0.178551
47 1 3.93456 9.82947 4.00954 0.823973 -0.0874532 0.812197
48 1 8.26017 5.72599 5.48028 -1.66813 -1.33375 -0.651948
49 1 4.13462 6.89862 1.25571 0.158766 -0.506976 -0.195358
50 1 3.92961 7.12357 6.8353 -0.177332 -0.66 -0.486381
51 1 9.56578 1.05449 1.19272 0.697503 1.40712 0.44589
52 1 9.4395 1.40134 6.7951 0.707688 -0.326947 0.0224828
53 1 9.676 6.79682 1.23342 -0.611037 0.623492 -0.234772
54 1 9.57533 7.10807 6.68169 -0.0625723 1.73607 1.98184
55 1 2.75194 2.76965 2.56154 -0.393208 0.0524673 -0.532333
56 1 2.4946 2.95131 8.07266 0.0155897 -1.36764 1.5795
57 1 2.73695 8.39886 2.54391 -0.401613 -0.414169 -0.121981
58 1 2.57808 8.53001 8.13774 -0.212612 0.545977 0.799026
59 1 8.2411 2.62081 2.6321 -0.0675843 -0.541963 -0.356538
60 1 8.24353 2.7652 8.26858 -1.21119 0.68647 -0.277432
61 1 4.09425 1.21535 1.24213 0.320838 0.363921 -0.0906672
62 1 3.9524 1.48073 6.88837 -0.0311462 0.488262 -1.90916
63 1 8.41174 8.39588 2.52285 -1.08643 0.0499799 0.979626
64 1 8.15494 8.64027 8.19789 0.244632 -1.69578 -1.097
