ITEM: TIMESTEP
620
ITEM: NUMBER OF ATOMS
64
ITEM: BOX BOUNDS xy xz yz pp pp pp
-3.1140387182500001e-01 1.1087275714303001e+01 -1.5890782108999999e-02
0.0000000000000000e+00 1.1635512432473000e+01 -2.9551308971599999e-01
0.0000000000000000e+00 1.1127300537966001e+01 2.9068760474299998e-01
ITEM: ATOMS id type x y z fx fy fz
1 1 1.37366 3.99129 1.24012 0.0976634 -0.091699 0.295746
2 1 1.29443 9.96233 6.76214 -0.853545 -0.412744 0.341193
3 1 6.78861 4.01314 1.26392 0.163461 0.392521 0.215867
4 1 6.60806 4.27496 6.7629 1.72206 0.862626 0.892009
5 1 6.82519 9.73118 1.2377 0.334063 0.220383 0.922979
6 1 6.86447 10.0898 6.82354 -3.14552 -1.62417 -1.38418
7 1 11.0516 11.2391 2.49285 -0.0872203 -0.520223 0.594748
8 1 10.7904 11.2244 8.25021 0.330722 0.588125 -0.841657
9 1 10.9954 5.36975 2.54276 0.00903758 1.0165 0.424631
10 1 10.8212 5.73557 8.235 0.411812 -0.515126 -0.491545
11 1 5.43653 11.14 2.66228 0.216414 0.0883578 -0.238143
12 1 5.32971 11.4557 8.162 -0.0212934 0.318068 0.107041
13 1 5.49126 5.63826 2.66096 0.284068 -0.399836 -0.43981
14 1 1.15074 4.32031 6.72087 -0.346508 0.286931 0.534567
15 1 1.35246 9.71858 1.21125 0.560704 -0.631064 0.230267
16 1 5.32177 5.71176 8.24068 -0.560501 0.338475 -0.875842
17 1 1.29369 6.90279 3.93985 -1.79686 0.00511332 -0.122489
18 1 1.11034 7.13984 9.54944 -0.01049 0.445926 0.278653
19 1 6.69501 1.33491 4.04262 1.06519 -1.11092 0.882378
20 1 6.63708 1.53776 9.63458 0.0504453 -0.22281 -0.343166
21 1 6.82164 7.06093 4.15788 0.230553 -0.369997 -0.601462
22 1 6.73914 7.04949 9.58571 -0.374234 0.920365 0.136851
23 1 10.8335 2.85457 11.0061 -0.416846 -0.553471 -0.835137
24 1 10.9569 2.79821 5.42654 -0.628865 -0.096627 -0.600925
25 1 10.7858 8.59631 10.913 -0.349727 -0.475569 0.675583
26 1 11.0314 8.43811 5.32732 0.0087393 0.461047 0.136593
27 1 5.14075 2.92184 10.9368 0.196244 -0.105464 0.355483
28 1 5.47172 2.87108 5.42066 -1.36462 -0.921138 -0.132901
29 1 1.19482 1.36626 3.93586 0.896597 -0.0524246 0.84285
30 1 1.12087 1.34979 9.50508 -0.398864 1.53013 0.267601
31 1 5.35789 8.6149 10.9631 -0.980067 -0.609756 -0.778385
32 1 5.33594 8.43969 5.43986 1.51222 2.29729 0.649627
33 1 4.1193 4.26872 4.07609 -0.505273 -0.442992 -0.802428
34 1 3.95254 10.1249 9.57921 0.0198312 -1.4126 -0.280276
35 1 9.48864 4.17621 3.96679 0.623426 -0.886529 0.311581
36 1 9.44501 4.28442 9.5891 -0.28922 -0.25009 -0.0454599
37 1 9.63833 9.88402 3.90021 0.138622 -0.411865 0.784214
38 1 9.29037 9.95818 9.66157 0.413177 -0.0610415 -0.487944
39 1 2.47502 11.4231 10.9027 0.0488166 -0.363853 0.773854
40 1 2.67138 11.3897 5.43351 -0.708795 0.245108 -0.351842
41 1 2.34719 5.75774 11.042 1.07041 0.0247618 -0.684294
42 1 2.57218 5.61554 5.26898 0.989968 -0.183569 1.95699
43 1 7.93792 11.3755 11.0378 -0.0253127 0.541181 -0.516571
44 1 8.26927 11.2251 5.42214 -0.38696 1.58534 -1.26235
45 1 8.02149 5.63635 11.0453 0.0757908 0.354971 -0.182743
46 1 3.83867 4.4238 9.57357 -0.496568 -0.544595 0.246074
47 1 3.94028 9.90684 4.00994 0.185559 -1.32405 0.134282
48 1 8.27987 5.56446 5.43987 -0.644867 1.28192 0.766072
49 1 4.10825 6.96436 1.13639 0.310151 -0.446433 0.509426
50 1 3.90325 7.15743 6.75117 0.142016 -1.35592 0.496033
51 1 9.56635 1.18595 1.23012 0.323126 0.913405 0.0636768
52 1 9.50982 1.43598 6.82482 0.146304 -0.305923 0.0794374
53 1 9.61549 6.93073 1.28457 0.233939 -0.156505 -0.457588
54 1 9.6034 7.2189 6.86515 -1.24615 -0.539362 -0.853132
55 1 2.83912 2.68018 2.69766 -0.639603 0.0884666 -0.46606
56 1 2.46453 2.96547 8.1333 0.112884 -0.399714 0.88018
57 1 2.72653 8.1321 2.68479 0.0910134 3.12424 -1.43364
58 1 2.63117 8.51956 8.20852 -0.41366 0.667825 0.157553
59 1 8.13234 2.59546 2.71855 0.603711 0.524266 -0.981287
60 1 8.00112 2.87141 8.12889 0.699566 0.0763279 0.722587
61 1 4.12915 1.13649 1.25673 -0.373257 0.996289 -0.37208
62 1 3.90443 1.58774 6.86189 0.74929 -0.534615 -0.695503
63 1 8.2035 8.39764 2.69536 0.265762 -0.291988 -0.277311
64 1 7.94034 8.62006 8.1282 1.73149 -1.57129 1.16952
