ITEM: TIMESTEP
640
ITEM: NUMBER OF ATOMS
64
ITEM: BOX BOUNDS xy xz yz pp pp pp
-3.1140387182500001e-01 1.1087275714303001e+01 -1.5890782108999999e-02
0.0000000000000000e+00 1.1635512432473000e+01 -2.9551308971599999e-01
0.0000000000000000e+00 1.1127300537966001e+01 2.9068760474299998e-01
ITEM: ATOMS id type x y z fx fy fz
1 1 1.39408 4.11341 1.31103 -0.256489 0.23359 -0.727369
2 1 1.20448 9.91402 6.85646 -0.0654812 0.152209 -0.182628
3 1 6.83187 3.998 1.18638 0.00434145 0.0177295 -0.302126
4 1 6.78541 4.32851 6.96969 -0.886518 -0.81811 -1.01578
5 1 6.99261 9.83654 1.34245 -0.790248 -0.0443548 -0.838639
6 1 6.67926 9.84502 6.75324 1.85864 0.436139 0.995384
7 1 10.9767 11.1756 2.58505 0.461921 0.395137 -0.0384029
8 1 10.8198 11.414 8.06964 0.152025 -0.105243 0.662668
9 1 10.984 5.61442 2.55977 -0.108947 -1.14635 0.301184
10 1 10.9097 5.64413 8.12155 -0.398578 0.411793 0.227981
11 1 5.41026 11.1722 2.68145 -0.330384 0.226056 -0.0762708
12 1 5.39239 11.361 8.08963 -0.313884 -0.526953 0.496004
13 1 5.55056 5.53576 2.48207 -0.422991 0.324755 1.1037
14 1 1.21011 4.30185 6.70545 0.42092 -0.344526 0.0131476
15 1 1.31289 9.74832 1.10089 -1.03315 0.670456 -0.173739
16 1 5.2946 5.75431 8.27958 0.145072 -1.03838 0.520101
17 1 1.18166 6.9682 3.96344 2.1673 0.963586 0.417677
18 1 1.00777 7.10409 9.66762 0.509059 0.00759243 -0.323885
19 1 6.78583 1.21941 4.19418 -0.253205 1.23244 -1.63251
20 1 6.59572 1.41614 9.6003 0.100561 0.532845 0.305407
21 1 6.81632 7.08647 3.96066 0.185744 -0.616688 0.0778049
22 1 6.62039 7.20351 9.72082 0.369716 -0.659434 -0.557394
23 1 10.8212 2.92976 10.9882 0.152672 0.55152 0.602422
24 1 10.9322 2.87288 5.27838 0.205124 -0.476698 0.491321
25 1 10.6115 8.58231 10.9735 1.07899 0.432201 -0.61347
26 1 11.0165 8.47462 5.41931 -0.487477 -0.64211 0.296682
27 1 5.07753 2.76849 11.0249 0.832849 0.359016 -0.309131
28 1 5.37168 2.75828 5.49973 1.35587 1.31741 -0.205918
29 1 1.28021 1.26197 4.03391 -0.842207 0.810264 -0.316119
30 1 0.991657 1.60157 9.50533 0.81667 -1.52896 0.0714927
31 1 5.26602 8.67924 11.008 0.382455 0.0384205 0.644952
32 1 5.45673 8.50343 5.37683 -1.38264 -1.36445 0.121883
33 1 4.12829 4.16423 3.96003 -0.11952 0.230669 0.453261
34 1 4.00763 9.87796 9.42218 -0.717412 1.25856 1.01848
35 1 9.47605 4.19462 3.94853 -0.0334301 0.950208 0.553779
36 1 9.51475 4.28632 9.57007 -0.300417 0.568102 0.148736
37 1 9.64617 9.8478 4.09099 -0.342952 0.197412 -0.493452
38 1 9.35734 10.0535 9.4547 0.345406 -0.0294957 0.948799
39 1 2.42871 11.3349 10.7377 0.0635637 0.482634 0.439547
40 1 2.57713 11.3516 5.46545 0.656914 -0.942177 0.143032
41 1 2.58759 5.71491 10.9269 -1.09676 0.155698 0.615372
42 1 2.80696 5.65926 5.46557 -1.47903 -0.163792 -1.65047
43 1 8.05708 11.5362 10.9793 -0.195595 -0.731682 0.0595928
44 1 8.22563 11.3127 5.46874 -0.103189 -0.803505 0.155398
45 1 8.04674 5.67306 10.9347 -0.508513 0.0138851 0.258444
46 1 3.80907 4.16368 9.55584 0.884887 1.19037 -0.0366874
47 1 3.92861 9.79334 4.10199 0.334892 0.771195 -0.464172
48 1 8.15969 5.72587 5.52422 -0.619329 -1.63028 -1.99129
49 1 4.09321 7.00162 1.22333 -0.0126584 0.00340472 0.0876143
50 1 3.99097 7.08259 6.88795 -0.00609378 1.252 -0.575357
51 1 9.64261 1.39729 1.27649 0.266681 -0.978546 -0.118638
52 1 9.5187 1.54018 6.78684 -0.282666 -0.00655955 -0.225871
53 1 9.5809 6.89528 1.18386 0.11091 0.0420978 0.213516
54 1 9.44557 7.07339 6.76483 1.70933 0.816191 0.817291
55 1 2.66767 2.67267 2.68603 0.286785 0.17872 0.0338299
56 1 2.51372 2.81718 8.1507 -0.13271 0.19113 -0.621297
57 1 2.62957 8.55819 2.52953 0.0707539 -2.46445 1.28949
58 1 2.48021 8.50141 8.32629 0.256259 -0.703688 -1.14952
59 1 8.15681 2.64699 2.62596 -0.340463 -0.0167757 0.815874
60 1 8.11034 2.84554 8.35359 -0.337105 0.00141908 -1.0431
61 1 3.87731 1.18014 1.21951 1.15656 -0.551172 0.348774
62 1 4.02343 1.41403 6.80166 -1.09566 -0.0860583 0.293394
63 1 8.38364 8.39122 2.60297 -0.875394 0.0392626 0.717767
64 1 8.13455 8.41132 8.27259 -1.17177 0.964305 -1.07856
