ITEM: TIMESTEP
750
ITEM: NUMBER OF ATOMS
64
ITEM: BOX BOUNDS xy xz yz pp pp pp
-3.1140387182500001e-01 1.1087275714303001e+01 -1.5890782108999999e-02
0.0000000000000000e+00 1.1635512432473000e+01 -2.9551308971599999e-01
0.0000000000000000e+00 1.1127300537966001e+01 2.9068760474299998e-01
ITEM: ATOMS id type x y z fx fy fz
1 1 1.36749 4.08605 1.38111 -0.0893711 -0.28126 -0.888766
2 1 1.15711 9.98872 6.84936 -0.195742 -0.00334971 0.0795572
3 1 6.67341 3.9653 1.22023 0.822167 -0.279842 -0.383046
4 1 6.6875 4.4637 6.93949 -0.472556 -1.88447 -0.977055
5 1 6.92621 9.87356 1.38179 -0.00905576 -0.451214 -1.19769
6 1 6.77466 10.0584 6.76076 -0.796632 -3.1923 -0.389804
7 1 11.0874 11.2426 2.68858 -0.303667 -0.446573 -1.04289
8 1 10.7105 11.4218 8.178 1.31463 0.537468 -0.0481335
9 1 11.0401 5.57623 2.53958 -0.655748 -0.00524089 0.781125
10 1 10.9782 5.55125 8.19725 -1.53188 0.60603 -0.0427152
11 1 5.41815 11.1228 2.71861 -0.0728402 1.04256 -0.272106
12 1 5.36565 11.3038 8.1293 -0.272847 0.0451588 0.938141
13 1 5.52957 5.53132 2.56321 -0.229916 0.694253 0.968649
14 1 1.25246 4.32585 6.6251 0.124251 -0.323426 0.508144
15 1 1.21323 9.66501 1.15134 -0.106873 0.718607 -0.023106
16 1 5.25677 5.79506 8.39589 0.31539 -0.77073 -0.27349
17 1 1.21469 7.05666 3.93838 1.31765 0.169087 0.0881473
18 1 1.23011 7.09258 9.46681 -1.17406 0.549049 0.691984
19 1 6.77048 1.39886 4.05331 -0.0298501 -0.717432 -0.0557556
20 1 6.68291 1.44237 9.47572 -0.511698 0.397142 0.891839
21 1 6.75004 7.11 4.10768 1.34754 -1.6867 -1.84381
22 1 6.78187 7.08168 9.72462 -1.04733 0.757038 -0.815879
23 1 10.9073 2.88552 11.0488 -0.996842 0.641493 -0.207779
24 1 10.8948 2.87977 5.39984 0.0565775 -0.475931 -0.480529
25 1 10.6642 8.44063 10.8281 1.14712 0.521297 0.0575221
26 1 11.0514 8.48598 5.44878 -1.29873 -0.779523 0.124069
27 1 5.05543 2.69671 10.9358 1.25793 0.946171 -0.340267
28 1 5.3439 2.75543 5.51271 1.11362 1.42654 0.0245032
29 1 1.26281 1.32098 4.0997 -0.255752 1.23754 -0.445409
30 1 1.14801 1.64119 9.48509 -1.05647 -1.18995 -0.199715
31 1 5.43631 8.65373 10.9912 -1.35533 0.175077 0.106693
32 1 5.39547 8.35401 5.33634 -0.0466385 2.63813 2.22024
33 1 4.10833 4.19251 3.95211 -0.137907 -0.441727 0.476725
34 1 3.85935 10.0411 9.59272 0.626479 -0.342989 0.408688
35 1 9.49668 4.26537 3.94745 0.415165 -0.259322 0.286252
36 1 9.35599 4.26896 9.7025 1.461 0.214754 -0.597679
37 1 9.69674 9.83741 3.94623 -0.973751 -0.216786 0.945044
38 1 9.35276 10.0083 9.50457 0.682921 -0.0110681 0.943322
39 1 2.27161 11.4432 10.8991 0.743914 -0.677771 -0.115254
40 1 2.53888 11.2926 5.39704 1.02061 -0.408845 0.80856
41 1 2.38838 5.71189 11.0113 0.730544 0.496563 0.294028
42 1 2.77639 5.66572 5.29823 -1.1634 -0.0348915 -0.158772
43 1 8.0322 11.436 10.9299 0.0865142 0.322242 0.849276
44 1 8.16868 11.2448 5.36245 0.818874 0.898895 -0.544208
45 1 7.95249 5.63696 11.1057 0.128098 -0.291922 -0.357244
46 1 3.7447 4.29696 9.64108 1.04265 0.0680788 -0.0155056
47 1 3.94937 9.79926 4.05029 0.273179 0.234103 0.165439
48 1 8.1794 5.67726 5.44558 -0.62918 -0.265338 -0.4775
49 1 4.18142 6.93869 1.18131 -0.513355 0.362353 0.00714361
50 1 4.05591 6.99314 6.78633 -1.15766 1.81884 0.783103
51 1 9.70986 1.27335 1.29085 -0.496592 -0.144951 -0.359572
52 1 9.42645 1.50094 6.77317 0.153526 -0.120053 -0.270825
53 1 9.55462 6.89378 1.18383 0.569401 0.0494505 0.563609
54 1 9.46141 7.02332 6.81499 1.4642 1.14395 0.640525
55 1 2.76623 2.63531 2.655 -0.214684 0.0598294 0.171213
56 1 2.59949 2.94596 8.10646 -0.00731243 -0.896498 -0.653311
57 1 2.7417 8.49778 2.52703 -0.579461 -1.66985 0.0694046
58 1 2.59201 8.60625 8.17266 0.592528 -1.26239 -0.661207
59 1 8.17481 2.713 2.61405 0.247716 -0.263201 0.0520006
60 1 8.06952 2.92974 8.1898 -0.132377 -0.0968366 0.154167
61 1 4.00379 1.08994 1.19297 0.0971493 0.0782292 0.836915
62 1 4.03105 1.28336 6.83959 -1.43007 1.34593 -0.383417
63 1 8.23899 8.36466 2.62423 0.394712 0.160437 0.46365
64 1 8.08092 8.53162 8.29753 -0.420485 -0.463938 -1.87724
