ITEM: TIMESTEP
830
ITEM: NUMBER OF ATOMS
64
ITEM: BOX BOUNDS xy xz yz pp pp pp
-3.1140387182500001e-01 1.1087275714303001e+01 -1.5890782108999999e-02
0.0000000000000000e+00 1.1635512432473000e+01 -2.9551308971599999e-01
0.0000000000000000e+00 1.1127300537966001e+01 2.9068760474299998e-01
ITEM: ATOMS id type x y z fx fy fz
1 1 1.38877 3.96262 1.25214 -0.181415 0.214275 -0.600125
2 1 1.17362 9.9178 6.71077 -0.327474 -0.410079 1.95278
3 1 6.73699 4.09016 1.30875 0.250993 -0.690394 -0.578315
4 1 6.77169 4.41497 6.82787 -0.591233 -1.75327 -0.262853
5 1 6.84787 9.82023 1.2414 0.375286 -0.155632 -0.150097
6 1 6.7021 10.0731 6.74599 0.507313 -0.165151 0.587335
7 1 11.0408 11.1449 2.53495 -0.215915 0.184221 0.357853
8 1 10.8574 11.2611 8.3267 0.312989 0.375229 -1.18035
9 1 11.0226 5.37793 2.48663 -0.427666 0.802735 2.00779
10 1 10.8231 5.67825 8.26023 -0.40277 -0.0525635 -0.151295
11 1 5.52612 11.1981 2.70796 -0.437972 0.267815 -0.359677
12 1 5.29152 11.4874 8.23432 0.378547 -1.06824 -0.581489
13 1 5.51665 5.73428 2.6012 -1.17152 -1.5676 -0.0356068
14 1 0.999794 4.32265 6.7426 1.3823 -0.118209 0.669492
15 1 1.35113 9.69959 1.21597 -0.204451 0.339558 -0.219145
16 1 5.44873 5.79569 8.28942 -1.91813 -0.832446 -0.885902
17 1 1.17408 7.05716 3.9703 0.733756 -1.57224 -0.47746
18 1 1.03138 7.22067 9.50319 1.07223 -0.211479 -0.0569183
19 1 6.864 1.37104 4.13193 -0.499235 -0.48319 -0.651373
20 1 6.68234 1.57815 9.3944 -0.516008 -0.423199 1.97735
21 1 6.81071 6.88645 4.10367 -0.57819 2.97032 0.713724
22 1 6.72359 7.09534 9.64264 1.15184 1.38514 -0.274728
23 1 10.7873 2.79532 10.9503 0.324183 0.369941 0.55046
24 1 10.9369 2.70813 5.54777 -1.17335 0.467267 -1.84581
25 1 10.8488 8.56907 10.9042 -1.37837 -0.586644 1.55141
26 1 10.9703 8.38676 5.49747 -0.102455 0.320853 -0.926347
27 1 5.15515 2.84818 10.886 0.843059 1.17522 0.148028
28 1 5.38556 2.78576 5.41595 0.228515 1.0197 0.682746
29 1 1.17709 1.31833 4.00352 0.930849 0.666422 -0.526965
30 1 1.17924 1.52218 9.56674 -0.597109 -0.181527 -0.226167
31 1 5.36649 8.63201 10.8858 -1.01162 0.304316 0.334274
32 1 5.29715 8.56855 5.57796 1.38558 -1.4937 -2.22861
33 1 4.04869 4.25844 3.98062 0.407958 -0.642799 -0.329795
34 1 3.88055 10.1392 9.59115 0.110367 -1.13069 -0.0475841
35 1 9.41443 4.14634 4.0342 2.4163 -1.00861 -0.256551
36 1 9.43291 4.16543 9.60922 -0.201414 1.00427 0.0708438
37 1 9.71263 9.79699 3.98974 -1.10661 -0.539324 -0.329725
38 1 9.3973 9.9321 9.70054 -0.0519482 0.697587 -0.612799
39 1 2.37114 11.4271 10.9818 0.931783 -0.0188776 -0.0647959
40 1 2.44709 11.2765 5.42456 2.61313 1.01395 -0.356713
41 1 2.31155 5.87475 10.9829 1.00001 -0.88485 0.101237
42 1 2.58421 5.48208 5.34722 -0.144359 1.94988 0.387856
43 1 7.9745 11.4764 10.8804 -0.190877 -0.221462 0.585396
44 1 8.34492 11.2807 5.31698 -1.22658 -0.440779 0.432755
45 1 8.01191 5.60028 11.077 0.00865869 0.247619 -0.732603
46 1 3.78889 4.43836 9.61398 0.902111 0.354102 -0.0138277
47 1 3.97817 9.8369 3.98171 -0.247933 0.60162 0.798338
48 1 8.26655 5.59587 5.42358 -0.436108 0.819742 0.566556
49 1 4.13554 6.98885 1.10283 -0.11645 0.261212 0.48022
50 1 3.942 7.09328 6.78721 -0.252029 -1.0356 0.260239
51 1 9.60315 1.19662 1.21701 0.13757 0.166157 0.101515
52 1 9.50344 1.28651 6.82749 0.418417 0.604065 0.693113
53 1 9.60295 6.85163 1.24729 0.739112 0.741242 -0.593632
54 1 9.53993 7.13811 6.87618 -0.807005 -0.384265 -0.255839
55 1 2.8527 2.62865 2.596 -0.912996 -0.231463 0.567188
56 1 2.50237 3.07151 8.21373 0.163482 -1.32333 -0.746792
57 1 2.73459 8.37984 2.55686 -0.0340623 -0.504552 0.531566
58 1 2.6472 8.56463 8.16152 -0.897524 0.146071 0.196476
59 1 8.16894 2.63075 2.63534 0.118183 0.41822 -0.245818
60 1 8.09602 2.82738 8.15112 0.540998 0.702472 -0.867007
61 1 4.17787 1.14839 1.12761 -0.318385 0.1755 1.17703
62 1 3.95421 1.43688 6.91864 -1.86079 0.59535 -1.75885
63 1 8.15714 8.35701 2.60891 0.967903 -0.0222557 0.62294
64 1 8.11571 8.65707 8.17646 -0.813459 -1.20766 0.325061
