ITEM: TIMESTEP
890
ITEM: NUMBER OF ATOMS
64
ITEM: BOX BOUNDS xy xz yz pp pp pp
-3.1140387182500001e-01 1.1087275714303001e+01 -1.5890782108999999e-02
0.0000000000000000e+00 1.1635512432473000e+01 -2.9551308971599999e-01
0.0000000000000000e+00 1.1127300537966001e+01 2.9068760474299998e-01
ITEM: ATOMS id type x y z fx fy fz
1 1 1.29514 4.16434 1.2036 0.0664625 -0.110693 0.343445
2 1 1.19309 9.92499 6.91048 -0.55076 0.279839 -1.98913
3 1 6.992 4.10011 1.20901 -0.371939 1.21202 0.0664851
4 1 6.81575 4.1211 6.75248 -0.963027 0.791753 -0.76437
5 1 6.83015 9.78078 1.16484 0.0353321 -0.646762 0.1938
6 1 6.77523 10.0167 6.76731 -0.81261 -1.49795 0.332973
7 1 11.0267 11.3143 2.62325 -0.262305 0.0369166 -0.0368325
8 1 10.792 11.3553 8.1599 0.851981 -0.141383 0.530309
9 1 10.9946 5.65998 2.62832 -0.0519967 0.177109 -0.8233
10 1 10.9417 5.68718 8.12838 -0.647835 0.406195 0.332744
11 1 5.48593 11.278 2.47929 0.11349 -0.228897 0.581309
12 1 5.31721 11.141 8.33203 0.0331862 1.43886 -0.393318
13 1 5.44673 5.51358 2.60685 0.333345 -0.030045 -0.101042
14 1 1.26607 4.17089 6.93781 -0.21872 0.142907 -0.906459
15 1 1.32619 9.83126 1.275 0.289152 0.544928 0.413047
16 1 5.30124 5.52308 8.09461 0.807175 0.768242 0.422439
17 1 1.16384 7.01986 4.12428 0.253301 0.688756 -0.448854
18 1 1.11552 7.208 9.51729 -0.609648 -0.683528 0.76825
19 1 6.78608 1.39111 3.88133 0.178185 -0.0189473 0.973358
20 1 6.7635 1.40869 9.65997 -1.60486 0.383647 -1.20765
21 1 6.78915 6.98748 4.06098 -0.137068 -0.638294 0.373077
22 1 6.65841 7.09548 9.52393 -0.953958 0.00534944 0.0580397
23 1 10.7405 3.01039 10.9621 -0.137921 -0.210091 -0.389961
24 1 10.8539 2.79683 5.58855 1.15717 -0.124416 -0.726972
25 1 10.9042 8.7254 10.9871 -0.580404 -0.512189 -0.821626
26 1 10.7868 8.56256 5.36723 0.850955 -0.411478 1.21079
27 1 5.36846 2.91603 11.0086 -0.260398 0.141338 -0.32723
28 1 5.34228 2.63457 5.47152 0.470115 0.795686 -0.936925
29 1 1.217 1.45637 4.10272 0.357044 -1.14325 0.285486
30 1 1.02639 1.47439 9.6037 0.44217 -0.0481484 0.345902
31 1 5.14087 8.51018 10.9394 0.740265 -0.346536 0.631724
32 1 5.34692 8.45785 5.44281 0.469763 -0.227893 -0.108428
33 1 4.00823 4.12538 3.99082 0.0900974 0.292198 0.741214
34 1 3.70945 9.88747 9.69467 1.15535 0.933435 -0.18847
35 1 9.7449 4.13421 3.98478 -0.831615 0.616901 0.389322
36 1 9.36141 4.41977 9.45972 0.904732 -0.669176 0.753249
37 1 9.51794 9.94038 3.89988 0.0577433 0.286581 0.975345
38 1 9.4503 9.94242 9.48509 -0.117245 0.244983 0.770411
39 1 2.48934 11.4849 11.0538 -0.545556 0.0610067 -0.393855
40 1 2.70025 11.2048 5.34904 -0.827731 0.338017 0.252769
41 1 2.42831 5.69807 10.8489 0.291177 0.343563 0.704452
42 1 2.55892 5.60133 5.41142 0.187595 -0.928893 -0.265647
43 1 8.02874 11.3596 10.8936 0.786249 -0.265369 0.935759
44 1 8.08128 11.3276 5.35597 0.893648 0.546881 -0.205589
45 1 8.14642 5.85859 10.9324 -0.772142 -0.0517645 0.423064
46 1 3.95996 4.28049 9.61231 -0.325713 -0.523223 -0.277619
47 1 4.16631 9.8598 3.88277 -0.904306 -0.279637 0.661816
48 1 8.35808 5.56475 5.42041 -1.76664 -0.0230699 -0.623912
49 1 3.95917 6.88153 1.23082 0.597199 -0.0455161 0.194667
50 1 3.90967 6.93931 6.76673 -0.372456 2.07233 1.10756
51 1 9.60112 1.29247 1.17882 0.503941 -0.043151 0.206422
52 1 9.47688 1.39208 6.89564 -0.842458 0.0885323 -1.09804
53 1 9.64993 7.23718 1.16299 -0.188554 -1.7629 1.32287
54 1 9.39911 7.08577 6.86653 1.25432 0.448045 -0.867478
55 1 2.64131 2.70506 2.66145 0.0637084 0.501651 -0.45172
56 1 2.59901 2.70793 8.26262 0.310773 0.264518 -0.0988399
57 1 2.62743 8.39615 2.67472 0.326601 -0.304196 0.09049
58 1 2.49962 8.55331 8.24985 1.21041 -1.77952 -1.78224
59 1 8.32388 2.78867 2.62082 -0.204391 -0.544786 0.0702147
60 1 8.03837 2.84482 8.18936 0.630537 -0.636454 0.656861
61 1 4.13539 1.38214 1.24764 -0.478392 -0.323286 -0.198908
62 1 4.01873 1.24045 6.84063 -0.390831 0.0994473 0.483118
63 1 8.13921 8.42211 2.77528 0.205341 0.0782276 -1.85582
64 1 8.056 8.5103 8.19437 -0.187041 0.171572 -0.312534
