128
Lattice="10.501 0.000 0.000 0.000 10.562 0.000 0.000 0.000 20.190" Properties=species:S:1:pos:R:3:forces:R:3 energy=-642.67456055 virial="-71.67509460 -3.97651291 -3.59581733 -3.97651291 -73.74056244 -3.26656413 -3.59581733 -3.26656413 -78.11550903"
Si     1.73155603     3.78924847     1.72365900     0.06930865    -0.14271297     0.05250007
Si     5.72862393     8.93387806    19.92074543     0.07851914    -0.14367805    -0.34812486
Si     5.01620310     2.78794350    14.64535291     0.12796187     0.24943855    -0.05043749
Si     6.66913066     2.15511360     8.93347002    -0.15925422     0.04952775    -0.09367506
Si    10.14810842     8.09300377    15.48311092     0.25765106     0.03052443     0.38545227
Si    -0.75785478     5.64533238    21.19325338     0.01623101    -0.11797075    -0.02644117
Si    -1.30618255     0.41700268    14.97825143     0.22892877     0.27142721    -0.32134902
Si     0.36598848     2.27667180     9.15720070     0.26875541     0.03500551    -0.08126517
Si     6.99862303     6.77214122    19.38471112    -0.02999968    -0.01260255     0.07755103
Si     7.05442917     6.38811196    15.61426425    -0.12813573    -0.12440910    -0.01556063
Si     7.32231293     0.71324291    17.02797937     0.21813557    -0.11014423     0.03276415
Si     6.04519261     0.98940994    12.10004686     0.00163990     0.06563192    -0.34912390
Si     1.03510711     7.24346511    18.40354995    -0.00504470    -0.12628463     0.06504959
Si     0.72278619     5.78039748    14.38443213     0.11267667     0.23796959     0.09538627
Si     1.61571286     2.68386059    15.13892911    -0.46969303    -0.30384052    -0.24909467
Si     2.01104179     0.85257627    18.39173332    -0.05142803     0.28700364     0.08342122
Si     5.13111648     5.02341557    18.20242875    -0.04193359     0.19743080     0.34985164
Si     6.23294814     5.77461463    13.37847885    -0.00072523    -0.17211600    -0.09801666
Si     6.00464941     9.11728793    17.35738702    -0.11070479    -0.08263435     0.10952657
Si     3.32169474     0.43488918    12.11345650     0.27063602     0.07833853     0.10421908
Si     1.32483997     4.67156152    17.76089020    -0.25093162     0.02583928     0.38627338
Si    -0.59403833     5.80599037    11.21807242     0.11154647    -0.13107845    -0.06860006
Si     9.12989682     9.92970895    18.55009311    -0.20307675    -0.22039641    -0.30235070
Si    10.75010719    10.85768587    12.76664496    -0.39302206    -0.17261024    -0.10673662
Si     6.52081257     9.17951272    14.16769088    -0.03862219    -0.12878156    -0.06948294
Si     6.58000411     9.11796074    11.66826328    -0.34079528     0.11762314    -0.11621002
Si     6.36933680     4.19558694    16.32283456     0.03249247    -0.28313026    -0.05608590
Si     5.42369868     5.22255544    11.11749158    -0.15533841    -0.08070696    -0.38478231
Si     0.34814970    10.31304947    16.72572334    -0.07043850     0.07170601     0.11173485
Si     1.85039713     0.33324127    14.52242884     0.11631261    -0.15636286     0.01052061
Si     0.43196506     9.32182638    10.83220039    -0.01219721    -0.32243249    -0.08170661
Si     4.51951046     7.72572321    14.08502312    -0.17915788    -0.07562210     0.02689101
Si     9.11549996     4.91505512    15.50842324     0.20578104    -0.11197697     0.10620732
Si     8.29375648     2.97733913    17.26377278     0.05385978     0.02840717     0.06078826
Si     7.17991888     3.29392089    13.24621880    -0.09082149    -0.04529016    -0.35672170
Si     2.97179108     8.58212322    17.00201235    -0.37039328     0.10968005     0.37674585
Si     1.07710957     7.33103164    12.29149606     0.31350601     0.03724980     0.09533918
Si     3.48520270     2.88299827    16.49320425     0.38150713     0.03900839     0.14385219
Si     2.94126690     2.92335640    12.64554321     0.00350212     0.15668583     0.12304506
Si     9.21294803     5.82998172    17.91963772     0.18896937     0.11742377    -0.10931803
Si     7.61140589     6.52643640    10.87550470    -0.13014284     0.00844558     0.27161050
Si    10.66995131     2.33965187    17.15132845     0.40757477     0.23341216    -0.01266024
Si     9.71925957     1.96109953    11.29099519    -0.16234386     0.07204445     0.07800084
Si     4.63095789     6.88592457    16.72101261     0.14201897     0.09627691    -0.40809888
Si     3.68472136     8.46550427    11.90070736     0.00056363     0.05734388    -0.16023323
Si     4.19209345     0.47268895    17.13533380    -0.21371925    -0.11252513    -0.11819084
Si     3.18284557     3.42233413    18.87216336     0.12181608     0.06832839    -0.04065676
Si     3.83141421     5.25031556    13.72662609    -0.06583236    -0.31178212    -0.26067132
Si     7.77844404     3.72291152    10.59439754    -0.05852473    -0.15566447     0.20223686
Si     6.86570346     1.01106022    14.58200847    -0.19316398    -0.01684825    -0.08208951
Si     7.99950267    11.11829825    10.20040111    -0.14427863     0.06770177     0.35505989
Si     2.74056594     5.28131346    15.90262657    -0.04201402    -0.05090333    -0.21364091
Si     2.84586584     5.81666816    11.33401974     0.19958358     0.32167137     0.12561586
Si     4.37267290    10.81441936    14.52333694     0.00568235     0.17266616     0.21549788
Si     2.62987241     0.92996055     9.64869515     0.12573418    -0.25038365     0.08974019
Si     9.67409739     7.91772217    20.02123591     0.09740409     0.20836669    -0.09147470
Si     9.00858825     8.82562291    13.55293992    -0.20208460     0.17221221    -0.07527627
Si     9.17656295     3.82815920    19.47175516    -0.08767164    -0.08017115     0.15038806
Si     9.53276437     2.87648102    14.03627324    -0.13546355    -0.08061857     0.10747788
Si     3.19576274     8.49700224    19.66977185     0.01510878     0.03317672    -0.16321942
Si     1.96543185     8.39825235    14.44610817     0.07604665     0.01447188     0.25041178
Si     4.60077093     2.94206885    10.52814173     0.05816407     0.04818529     0.04584608
Si     0.64560571     4.04924730    12.52662054    -0.11061729    -0.20650609     0.03499095
Si     7.32316054     8.33439156     7.89371830     0.08668987     0.32980865     0.13970394
Si     8.52814577     7.25429865     3.69483917     0.04327080    -0.11386503     0.00090620
Si    10.13285452     8.78537841     5.12989077    -0.05973531     0.05963292    -0.18661590
Si    -0.07093281     7.40926111     9.22452146     0.10436218    -0.18867004    -0.06339191
Si     0.61909810     2.45000924     3.80646688    -0.07272825    -0.16264455    -0.14560233
Si     0.66806896     2.08117370     0.18714319     0.17600149     0.29603499    -0.12536183
Si     7.57167851     5.79650755     8.56352920    -0.05646503     0.24465103    -0.26042667
Si     6.25376725     6.18355109     4.46099527    -0.12478872     0.14712270     0.11531848
Si     8.36495777     0.27069192     7.69627423    -0.11676019    -0.09813450    -0.14711164
Si     6.50275707     1.45507085     2.98078853     0.02392241    -0.06950074     0.01644024
Si     2.31212998     6.38796836     8.83196016    -0.22190219     0.12134624     0.02449089
Si     1.94597236     6.96672397     5.24506052     0.02975180    -0.14214364    -0.04272568
Si     3.13346277     1.35741103     7.05205660    -0.11270529     0.17818549     0.05747145
Si     1.61944879    -0.41151954     4.01009630     0.08559951     0.13476041     0.01913806
Si     4.50082564     2.87971941     4.30040066     0.26387787     0.17923750    -0.01053841
Si     5.02659721     5.97291552     8.66920794    -0.15369034     0.17745960    -0.03870028
Si     4.87185926    10.91246731     8.80664821     0.02885433    -0.18814728    -0.20661099
Si     5.68558113    -1.06445600     2.47749857    -0.12809883    -0.31058717     0.08559001
Si     0.69243193     5.29353059     6.97981829    -0.06537516     0.00777585    -0.07506067
Si     0.56187985     6.14543982     3.19070704    -0.19458260     0.20609829     0.04253543
Si    10.62742330    10.41067381     8.61573656    -0.04854533     0.24745324    -0.04157982
Si    10.02240359    11.58268901     2.01534387    -0.03767116     0.26777440     0.22659758
Si     5.00359346     9.36498407     6.82175248     0.05746003    -0.17210679     0.01604444
Si     8.00558723     9.04879616     1.76450671     0.09380504    -0.21772023     0.17985764
Si     6.92619554     4.87883886     6.44272945     0.17481503    -0.46633142    -0.15464297
Si     4.71608274     3.77418784     1.04586745    -0.04590149    -0.12287554    -0.00746358
Si     1.30596099    10.35431058     6.52078354    -0.03457929    -0.19304292    -0.17681494
Si     0.19950187     9.35899457     1.62230526     0.25867188    -0.15043910    -0.20382580
Si     1.07053184     2.87247850     6.51070318     0.38826394    -0.02312131    -0.02825279
Si     5.08005656     6.97342061     2.20450390    -0.14511010    -0.35497373     0.18305869
Si     5.17894164     8.39417857     9.58406502     0.00806481     0.25566322     0.18300889
Si     5.83620738     1.55123013    18.77388256    -0.24180904    -0.13957790     0.14006263
Si     6.60486051     8.64661676     4.80748436     0.09914706     0.21145448    -0.25271773
Si     8.47146056     3.01895684     7.30923253     0.04866870    -0.07791164    -0.11327354
Si     9.18462366     5.15325680     5.31020108    -0.03824580     0.31377813    -0.05622237
Si     6.71676671     3.99696353     3.03348684     0.07819986     0.08976248    -0.26580268
Si     2.66177689     8.41422552     7.16967604     0.13092929    -0.07633589     0.01793789
Si     1.98279932     7.73845870     1.69881737     0.01877496    -0.16278979     0.13941069
Si     3.64353997     3.88296965     8.20263508     0.22657290     0.11386753    -0.05758942
Si     2.89534209     1.75386185     2.95239456    -0.27360830    -0.37684113     0.01887792
Si     9.34617310     7.24302225     6.98002115     0.18586957     0.02045491     0.02005789
Si     7.40095786     6.25822525     1.64358769     0.02090836     0.15186399    -0.00491343
Si     9.58406191     1.47171295     5.64219373    -0.00652169    -0.00259573     0.17687482
Si     8.09933088     2.35161921     1.14325820    -0.06681476    -0.28346589     0.04206150
Si     4.56429031     6.85892835     6.29864996    -0.04921047    -0.31082252     0.01204470
Si     4.20959974     6.34964961    -0.08014200    -0.06660784    -0.23964316     0.34122244
Si     5.45409805     2.84073669     6.55441551     0.16050209     0.03578199     0.11178760
Si     4.70756190     1.24586260     1.16870950    -0.31188917     0.10349439     0.15861228
Si     6.55381668     3.66377952    -0.50685257     0.34292290     0.04720334     0.07112502
Si     3.59479779     4.87442248     2.98302538     0.09118603     0.05066658    -0.05128171
Si     6.69441281     0.55775528     5.62820197    -0.15775572    -0.03903643    -0.06798276
Si     7.38567934    10.77506493    -0.13758553     0.27227700    -0.06578710     0.19050464
Si     3.16830974     4.63652609     5.60629522    -0.08573461     0.38444048     0.15173668
Si     1.62725639     5.67239688     0.12002949     0.22871783     0.21139309    -0.05454771
Si     4.09531802    10.77017465     5.00477035    -0.10805382     0.15600061     0.04047227
Si     2.53785746     0.05422502     0.49178150    -0.17484444     0.13186631    -0.04272866
Si     8.46248743     8.71307653    10.14191035     0.05787177     0.03112294    -0.02276804
Si     8.52339651    10.56079649     3.73986921    -0.01288854     0.11921702     0.37873262
Si     9.73946035     4.55709187     8.94414925    -0.26976082    -0.16308129    -0.07910986
Si     9.35938337     3.87529073     2.81227620    -0.14974238     0.23558202     0.27134508
Si     2.60280978     8.82997465     9.66848065     0.08354120     0.15042469    -0.17835978
Si     3.47405385     8.50949125     3.64322252    -0.22687797    -0.08351249    -0.17421934
Si     2.11834394     3.67222499    10.22039915     0.27682912    -0.06791817     0.01111068
Si     8.69204868     6.30571152    13.45734803    -0.05616494     0.19133630    -0.16163449
Si     8.18688050     7.98424525    17.10414437     0.10879216     0.01086677     0.10103776
128
Lattice="10.287 0.000 0.000 0.000 10.264 0.000 0.000 0.000 19.449" Properties=species:S:1:pos:R:3:forces:R:3 energy=-641.09545898 virial="51.11455917 1.67173123 2.18683434 1.67173123 50.57489777 5.74893808 2.18683434 5.74893808 47.56533813"
Si     2.07377099     3.40311252     1.39444671    -0.17526998     0.61026955     0.15465440
Si     5.40174487     8.69407955    19.09602930    -0.00433674     0.35600266     0.76737571
Si     5.10129147     2.90658067    14.35982783    -0.46912274    -0.20592874    -0.77555621
Si     6.43662613     1.73530006     8.51896395     0.51098603     0.69065523     0.28949746
Si     9.95322452     7.96820580    14.90031729    -0.14251164    -0.12156762     0.13532659
Si    -0.69940550     5.44700487    20.44738453     0.17142996     0.00753289    -0.41648692
Si    -1.24158085     0.52600009    14.00111291    -0.57822311    -0.01141509     1.08165002
Si     0.36587265     2.24228935     9.04936056     0.04737608     0.13443977    -0.01387738
Si     6.67690669     6.67071949    19.02034747     0.15145409    -0.32396191    -0.31043139
Si     6.93181014     6.46206621    15.20792476     0.27193981    -0.23774466    -0.66643393
Si     7.33898286     0.57327172    16.37170643     0.05438951     0.31595778    -0.14394994
Si     6.03143913     0.93694118    11.51636854    -0.57793534     0.74548054     0.05853620
Si     1.16657516     7.06997189    17.88504050    -0.55787063     0.10014679    -0.62879521
Si     0.81020047     5.74795592    13.83147834    -0.15278624     0.04376800     0.10236602
Si     1.18667177     2.42725081    14.43891753     0.43237108     0.44153553    -0.17801788
Si     2.00844234     0.62746755    17.46572949     0.20563801    -0.14314359    -0.06714770
Si     5.09407286     4.66479141    17.60551767    -0.08899176     1.20663810    -0.26653171
Si     6.16854458     5.52805249    13.00526890    -0.13707088    -0.06573106     0.05020855
Si     6.04613973     8.77173472    16.87576523    -0.28558782    -0.03424380    -0.86687946
Si     3.43997431     0.71262618    11.54656482     0.28056049    -0.31619540     0.14755672
Si     1.19087795     4.59894316    17.19031753     0.14169288     0.19803777     0.12742156
Si    -0.35117957     5.51675210    10.69804833     0.12192523    -0.11810564    -0.24575874
Si     8.77805079     9.53978370    17.84501726     0.49302834     0.96713006     0.68175173
Si    10.47018083    10.45296526    12.27359664     0.58848393    -0.36467957    -0.93775094
Si     6.19635242     9.09166437    12.98091928    -0.15815666    -0.45028445     1.12581646
Si     6.24282061     8.96920249    10.71692621     0.54485184     0.09497444     0.38572857
Si     6.40234981     4.22306974    15.65350869     0.36030743     0.11911406     0.70244169
Si     5.25266650     5.42200861    10.75684779    -0.34514388     0.36567193    -0.29641974
Si    -0.04472012    10.09091021    16.07749245     0.44736129     0.23117788    -0.11221455
Si     1.89233794     0.28489015    13.95467771    -0.27662024     0.03225841    -0.26028487
Si     0.21167189     8.77665648    10.37127757    -0.05092115     0.71427858     0.68308067
Si     4.32443807     7.42382219    13.63773826     0.29564241     0.28311408    -0.19220883
Si     9.04226396     5.00214085    14.98645220     0.06254996    -0.11305587    -0.26750547
Si     8.28556642     2.95988958    16.50895770    -0.06841855    -0.35726106    -0.01681927
Si     6.85007733     3.15183722    12.70158706     0.07715203    -0.03076918     0.30336493
Si     3.00112775     8.39527247    16.40644912    -0.16109431     0.19000727    -0.19197842
Si     1.24228242     7.10337347    11.81594898    -0.35581318     0.13610351     0.31040448
Si     3.19349101     2.83802962    15.69394654     0.02659531    -0.09168570    -0.59140301
Si     3.00814059     3.10143819    12.23646784    -0.74551034    -1.09458113     0.20118138
Si     9.24502068     5.76877755    17.30105250     0.22569913    -0.68913358     0.31973618
Si     7.58932444     6.07250320    10.55099203    -0.35888320    -0.12046257    -0.23282716
Si    10.63020796     2.30128046    16.61868043    -0.33274204     0.22982091     0.26980495
Si     9.24891121     1.85354119    11.06249701     0.61183345    -0.01434248    -0.09801279
Si     4.77948014     6.78330957    15.94641601    -0.91562283     0.05589052     0.41518044
Si     3.33417129     8.35035095    11.57239957     0.39344552     0.15727004     0.30261940
Si     4.21903532     0.51372190    16.30634732    -0.40645963    -0.27931207     0.58270562
Si     3.17440704     3.35159244    17.92284015    -0.21686053    -0.14184473     0.93920749
Si     3.83679049     5.03359420    12.99059372     0.13998114     0.69241989     0.95613796
Si     7.47427447     3.31787707    10.43238072    -0.03548240     0.50070810    -0.57739437
Si     6.62590725     0.96538220    14.09858080     0.33809096    -0.15607604    -0.16006285
Si     7.84677249    10.58909741     9.82146928     0.13507000     0.36388308    -0.23819877
Si     2.64290742     5.28167552    15.27119260     0.42609376    -0.18755190     0.03240151
Si     2.75491549     5.58438771    10.89648354     0.12751928    -0.06523868    -0.57259816
Si     4.25395625    10.82582927    13.92782842     0.18656021    -0.23620668     0.02064246
Si     2.69870070     0.70532041     9.10197139    -0.37707442     0.41501755     0.35276097
Si     9.54641619     7.76513945    19.30225151    -0.02620263    -0.04352213     0.02972136
Si     8.64876708     8.64243374    12.95154440    -0.00175562    -0.25307745    -0.01145920
Si     8.58203658     3.76876573    18.79467849     1.16677046     0.46846467    -0.18899526
Si     9.13387797     2.84393072    13.66010571    -0.43389484     0.45757324     0.13633378
Si     2.92802790     8.27515940    18.85248343     0.63264757     0.39879483     0.45095128
Si     1.88994524     8.23534188    13.94368498     0.33640927    -0.25358588     0.44558322
Si     4.93627035     3.13449915    10.18422706     0.30000460    -0.43498796    -0.07394549
Si     0.47908670     3.85596227    12.23599587     0.41729748    -0.20233451    -0.13401963
Si     7.17927684     8.08033054     7.67140430    -0.12383129    -0.00681685    -0.70152742
Si     8.30388418     7.03394840     3.83175362     0.08640429     0.49114162     0.13201541
Si     9.75731729     8.72907909     5.04737945    -0.05467805     0.19533297     0.15108871
Si     0.02670490     7.16274845     8.75158725    -0.25826442    -0.19592360     0.29769045
Si     0.59687326     2.54935774     3.47587736     0.06339569     0.81150365     0.69701529
Si     0.82170662     2.17419206    -0.26557851    -0.06730056    -0.21845289     0.11844086
Si     7.49932177     5.53724660     8.22967584    -0.20349640     0.45072925    -0.09500411
Si     5.86594716     6.10967739     4.34302668     0.31409270    -0.43176931     0.25629362
Si     8.53114633    -0.12669770     7.10928832    -0.10143936    -0.01251992    -0.17805465
Si     6.43062936     1.46415317     2.80551302    -0.23279928    -0.24424379    -0.03989122
Si     2.13203663     6.29378245     8.57073014     0.61268348    -0.76945090    -0.04605490
Si     2.08575554     6.66119913     5.22855477    -0.73029995     0.66002214    -0.61257643
Si     2.97488343     1.51463778     6.71026288     0.73097521    -0.33304465     0.23577957
Si     1.93394167    -0.37608284     4.08006400    -0.35588568    -1.06685174    -0.37408143
Si     4.36902779     2.84230765     4.16505490    -0.06746028     0.30197626     0.24513584
Si     4.98319852     5.72927337     8.28142580     0.19967042     0.60888118     0.12104727
Si     4.79709930    10.44110615     8.49535500     0.13925467    -0.06370689     0.41192842
Si     5.52885174    -1.18518063     2.34823282    -0.29074413     0.31964073    -0.69900477
Si     0.67852758     5.08620712     6.79134782     0.18105648    -0.30437636    -0.14715633
Si     0.46033260     6.04863666     3.30787830    -0.16397244     0.13684724     0.22465815
Si    10.70198670    10.29994182     8.37327519    -0.63267326    -0.25864169     0.39123237
Si     9.98252256    11.54270784     1.82078256    -0.19025086    -0.58973467    -0.55811775
Si     4.88641402     8.97695221     6.82346493     0.41274795    -0.40274122    -0.91093886
Si     7.93021919     8.69394467     1.89131903     0.07594399    -0.04269488    -0.19933122
Si     6.67521524     4.58142920     6.28216465    -0.09717836     0.49498439    -0.91704535
Si     4.50243776     3.71089249     0.94953735    -0.25665000     0.44322062    -0.14637870
Si     1.31452204    10.06391557     6.29024549     0.01005681    -0.29243240    -0.21712445
Si     0.14965462     9.24933906     1.56845546     0.13254547     0.15074196    -0.06961295
Si     0.96337197     2.63355542     6.35807959    -0.32997072     0.43296495    -0.10246626
Si     5.07971653     6.63310015     2.08296885     0.17487247     0.51663971     0.12035222
Si     4.79953424     8.08395405     9.33014012    -0.41599265    -0.89821255    -0.53180569
Si     5.82351552     1.49555416    17.99734362    -0.44439381     0.04290947     0.05473650
Si     6.30244296     8.48424551     4.46138904     0.29888174    -0.57193339     0.32660806
Si     8.05593632     2.87711497     7.13012778     0.52329075    -0.44090724    -0.08522442
Si     8.85122504     5.08612645     5.12758616     0.16090226    -0.43740159    -0.11263479
Si     6.62845254     3.87304435     3.05911078    -0.51463300     0.26780775     0.07431945
Si     2.65430311     8.23639545     7.07931172    -0.47024375    -0.22679068    -0.42869854
Si     1.69857157     7.52517672     1.71819999    -0.11346743    -0.14195088     0.00402748
Si     3.63009271     3.84764817     7.98360094    -0.18575478    -0.36943173    -0.27132165
Si     2.66270491     1.48181592     3.06406481     0.77665174     0.83403146    -0.64062208
Si     9.17213087     6.80875819     6.80887023    -0.37363142     0.56184345    -0.55703020
Si     7.41166118     6.18752890     1.85330261    -0.10282443    -0.21458367    -0.51008099
Si     9.20218881     1.68804397     5.32934233     0.16882455     0.13309675     0.21731642
Si     7.97010164     2.02223172     0.92944576    -0.02252483     0.41099423     0.55916005
Si     4.40212820     6.66194651     6.12131438     0.26455891    -0.07384419     0.11861195
Si     4.02118838     6.20435119     0.05026928     0.62679374    -0.32269120    -0.71887815
Si     5.41002699     2.60792274     6.44677496    -0.44562402    -0.27341497    -0.26719853
Si     4.38353153     1.48186511     1.25122822     0.06682849    -1.18268561     0.27140892
Si     6.37593401     3.55477303    -0.29885142     0.01087202    -0.05335888     0.05027778
Si     3.74710137     4.90354754     2.76803949    -0.70467854    -0.53963709     0.99425650
Si     6.76228877     0.33878327     5.27520640    -0.25041252     0.85619462     0.26973742
Si     7.22408471    10.37846274    -0.05224778    -0.23181716    -0.75648487    -0.00048425
Si     3.13210776     4.64531685     5.63211221     0.12575321    -1.08832705    -0.16641633
Si     1.75772367     5.64878525     0.25023529    -0.53891528    -0.75836742     0.22628452
Si     4.21935257    10.39025709     4.90394443     0.03714593     0.19661887     0.23220333
Si     2.52512716     0.17365238     0.39623310    -0.49036181     0.01898877    -0.04664363
Si     8.21847082     8.23064475     9.72514321     0.17228863    -0.19526994     0.48129860
Si     8.46852753    10.40658079     3.54157880     0.38049370    -0.02951816     0.15045577
Si     9.44605345     4.19914315     8.64164565     0.12530912    -0.01898783    -0.04798156
Si     8.93651760     3.99517298     2.73334397     0.69595015    -0.45713860     0.55484694
Si     2.45228057     8.59082505     9.43259379    -0.22120917     0.18378313    -0.30438852
Si     3.37809820     8.07850641     3.20745965    -0.15487985     0.19629042     0.79905832
Si     2.39289298     3.05448904    10.01717874    -0.19651066     0.41055530    -0.80895138
Si     8.37651098     6.22727311    12.74679006     0.63042891     0.01525436     0.50344336
Si     8.22861502     7.72469431    16.70768573    -0.45069838    -0.42476264    -0.60618711
128
Lattice="10.662 0.000 0.000 0.000 10.532 0.000 0.000 0.000 19.689" Properties=species:S:1:pos:R:3:forces:R:3 energy=-643.41162109 virial="-41.86565018 -4.46220160 -6.62596893 -4.46220160 -41.32167816 -0.42465705 -6.62596893 -0.42465705 -41.24842453"
Si     2.24049442     3.51497110     1.36568501    -0.44198287    -0.07781442     0.36748615
Si     5.53754805     9.00514495    19.45729458     0.20872450    -0.42816436    -0.63325042
Si     5.26525933     3.09850574    14.42666883    -0.02727966     0.18238176     0.28931168
Si     6.76917198     1.85003113     8.67160493    -0.37053406    -0.11364600     0.02919829
Si    10.29013054     8.21156127    15.16046238     0.02696051     0.19248679    -0.01044272
Si    -0.65746407     5.57467471    20.55615516    -0.33010814    -0.03152584     0.33984816
Si    -1.38262503     0.60192292    14.23969089     0.24164301    -0.00980699    -0.13922414
Si     0.42816477     2.33744970     9.29689743     0.00189555     0.02678771    -0.05335673
Si     6.82102427     6.80420166    19.29957055    -0.25392672     0.14366043    -0.14834702
Si     7.22267001     6.64167233    15.19585352     0.04771314    -0.17028435     0.26471686
Si     7.71682701     0.65354775    16.54627369    -0.32342559     0.01624988     0.23972169
Si     6.12040273     1.21259161    11.58250015     0.21491429    -0.07116301     0.08565754
Si     1.10953605     7.43064355    17.90063022     0.15595123     0.01084591     0.11430602
Si     0.86819255     6.00569868    14.05781827     0.17339076    -0.04597538     0.13436034
Si     1.15514433     2.51901370    14.47914501     0.23161207    -0.08729339     0.28846127
Si     2.11908410     0.47250841    17.51507767    -0.37284318    -0.04781457     0.02239702
Si     5.27659773     5.13490365    17.79244345     0.21036978    -0.20618775    -0.22836360
Si     6.42152225     5.59658479    13.22229077    -0.07488012    -0.04211970    -0.57046962
Si     6.22428075     8.96222534    16.90703265    -0.02002683     0.11023547     0.20483604
Si     3.75974845     0.74332162    11.70285317    -0.34367460    -0.14192459     0.24709910
Si     1.34022013     4.82681896    17.54821584     0.35928136     0.25756693     0.03767946
Si    -0.19141069     5.51987229    10.68205482    -0.20173463    -0.02981698     0.19875273
Si     9.21762379     9.98744202    18.19267794    -0.18264264    -0.24658132    -0.15576275
Si    10.94516399    10.62927633    12.22164582    -0.36361456     0.19835776     0.43597150
Si     6.26947679     9.24879364    13.13372548     0.48365617     0.10765550    -0.05718263
Si     6.41240601     9.31528986    10.64425322     0.01739050     0.19924679     0.30560696
Si     6.81005934     4.39006451    16.03604082    -0.37124020    -0.15573978    -0.08440898
Si     5.26523295     5.86079594    10.78348312     0.13600041    -0.30755708     0.21661264
Si    -0.07354291    10.49663607    16.23983500     0.27267638    -0.03615542     0.10894924
Si     1.89359786     0.27866367    13.96698036    -0.04564603    -0.10032234    -0.03084387
Si     0.08543923     8.97224622    10.60722873     0.27725208    -0.07315252    -0.14190416
Si     4.53323961     7.68640917    13.78209444    -0.15153109    -0.05185037     0.01180631
Si     9.48249298     5.24291449    15.10809014    -0.06282024     0.13596034     0.11401000
Si     8.65853594     2.91129683    16.64436707    -0.14794232     0.07823518     0.07661726
Si     7.05836467     3.20305628    12.87081543     0.04662301     0.02824245    -0.17806943
Si     3.04420617     8.72419124    16.60633866    -0.06956390    -0.15722375     0.41245812
Si     1.31473312     7.30585794    12.04948112     0.18611504    -0.13466327    -0.16537596
Si     3.19584132     2.94278470    15.68157254     0.15780222     0.14217453     0.43866986
Si     2.88745853     3.01459612    12.48614595     0.02779971     0.16522135    -0.34349579
Si     9.71784331     5.77768267    17.58728744    -0.11097310     0.31653386    -0.56247878
Si     7.81447925     5.98477698    10.69446026     0.13723689    -0.09911758     0.11987551
Si    11.01409778     2.50058681    16.91070963     0.06380273     0.06111841    -0.13198319
Si     9.67170334     1.88962101    11.26645642     0.18697928     0.05582986    -0.16983494
Si     4.76130079     7.02328913    16.16298946    -0.04366238     0.06889723    -0.05278499
Si     3.41058604     8.74724279    11.86170579    -0.14192189     0.00144979    -0.24562660
Si     4.29965058     0.43662080    16.57632457     0.23948255    -0.04627781    -0.11537894
Si     3.30043264     3.41123430    18.29059519     0.34903303     0.06246936    -0.21133825
Si     3.99676366     5.24947730    13.31004962    -0.04204459    -0.31476453    -0.25929666
Si     7.81676674     3.45458948    10.50508243     0.42881960     0.28087860     0.06538704
Si     6.87774958     0.91360424    14.20125518    -0.13998584    -0.11353461    -0.13684665
Si     8.20795120    10.89431131     9.87194573     0.04802118     0.02337941     0.12452435
Si     2.86949848     5.41073287    15.43017026    -0.28567067    -0.14292330     0.24108073
Si     2.85038436     5.66302721    10.88776161    -0.24053192    -0.09613974     0.39219695
Si     4.43717032    11.20451030    14.13334819    -0.12707445    -0.04543334     0.24315560
Si     2.80225250     0.73054214     9.23810570     0.28709412    -0.15916181     0.06259923
Si     9.95184922     8.01373088    19.54747800     0.10792057     0.03833960    -0.08590922
Si     8.86609785     8.85953116    13.07196851     0.10545849     0.07980148     0.34777611
Si     9.05664425     4.02266481    18.98965172    -0.21374786    -0.51990217    -0.02855779