Created from lmp.config
64           atoms
1            atom types
  0.000000000000  11.133776881099 xlo xhi
  0.000000000000  11.223192087773 ylo yhi
  0.000000000000  10.992593606461 zlo zhi
 -0.215777842305   0.053801181255  -0.058671844649 xy xz yz

Masses

1             28.086000000000 # 14

Atoms # atomic

1            1              1.300572375296   4.013675869856   1.228821821344
2            1              1.228122635603   9.588926811905   6.711314435986
3            1              6.878646377608   4.015048403945   1.225380535139
4            1              6.898749102344   3.991356134528   6.706493592011
5            1              6.774248652359   9.624445507642   1.217651594017
6            1              6.796429060447   9.587059589906   6.725397220814
7            1             11.132481018274  -0.206861723701   2.587582184440
8            1             10.947099531317  10.981666419279   8.088284542943
9            1             -0.097357326371   5.407114203534   2.597555684566
10           1             -0.069504406926   5.378626589693   8.099847782493
11           1              5.575923809774  -0.206793696308   2.599423712399
12           1              5.390708308591  11.001249134399   8.093618879560
13           1              5.458303625842   5.407201447774   2.590961564677
14           1              1.343953146043   3.987024556818   6.731977551465
15           1              1.205767355558   9.632235729509   1.218323966077
16           1              5.497303841904   5.377478360357   8.088235998772
17           1              1.266043518733   6.792510135006   3.971567251372
18           1              1.299884169124   6.777701767065   9.471696986792
19           1              6.939785595304   1.183739572078   3.967975631157
20           1              6.972648545004   1.170827278320   9.465365287286
21           1              6.833541344159   6.797062442625   3.976069181284
22           1              6.872513470364   6.785146148306   9.466690832144
23           1             -0.062966672010   2.612937693141  -0.151857399335
24           1             -0.028329711278   2.583091895590   5.336893246714
25           1             -0.177863306018   8.221927680074  -0.136266142417
26           1             -0.142060018346   8.202399035873   5.345572869462
27           1              5.510418996413   2.615263990352  -0.143172343224
28           1              5.534023850140   2.583963375233   5.348849227639
29           1              1.371977892201   1.186621535864   3.970075401502
30           1              1.405246934394   1.161773902574   9.462163830566
31           1              5.386453767926   8.228591252011  -0.150541783399
32           1              5.425834916819   8.204030189329   5.351776714567
33           1              4.093313513754   3.999435612927   3.984015594366
34           1              4.023784883273   9.584130968192   9.454329072747
35           1              9.670031787185   3.998932120374   3.974885977733
36           1              9.710338047009   3.980589353846   9.458632318776
37           1              9.571402812504   9.621145957114   3.977194428289
38           1              9.598225232717   9.584950951896   9.473955391933
39           1              2.779068000303  -0.190194595328  -0.153826302141
40           1              2.812138656371  -0.221606315340   5.343025670813
41           1              2.674044844250   5.424975206230  -0.158315210775
42           1              2.682483243192   5.397327385250   5.338146960575
43           1              8.342174219454  -0.194556545045  -0.153708375955
44           1              8.370277828474  -0.215345757581   5.333014404586
45           1              8.239173377344   5.422642135453  -0.148198585521
46           1              4.145695893377   3.967791406910   9.459651475342
47           1              3.997299883893   9.610290134217   3.967324780051
48           1              8.266647669771   5.385286013803   5.346855445311
49           1              4.038559404631   6.822452536204   1.226744819183
50           1              4.071121937532   6.788737275355   6.719053288922
51           1              9.706232201125   1.193128467881   1.227858376219
52           1              9.734069912734   1.184308216101   6.714596194304
53           1              9.599374073529   6.815019456676   1.214790582467
54           1              9.631443530916   6.792718467616   6.711692017136
55           1              2.733545140015   2.601234482047   2.595678427565
56           1              2.757837237390   2.559500311281   8.088488773037
57           1              2.623547889459   8.213067334470   2.587054619181
58           1              2.651315363479   8.180386613319   8.093299871993
59           1              8.299820251062   2.605477889452   2.596397196907
60           1              8.332812204721   2.565863911258   8.082333994184
61           1              4.145457431574   1.208848909620   1.221160817084
62           1              4.176826425794   1.180062770831   6.716683208207
63           1              8.189157526989   8.216484880985   2.604082830246
64           1              8.218437082135   8.173462847036   8.090144404398
