128
Lattice="12.618 0.000 0.000 0.000 12.663 0.000 0.000 0.000 24.934" Properties=species:S:1:pos:R:3:forces:R:3 energy=-595.13854980 virial="-357.14041138 0.92513776 0.10140991 0.92513776 -361.80319214 -0.05205757 0.10140991 -0.05205757 -341.99337769"
Si     1.69282958     4.64746361     1.48198104    -0.21527189     0.37647825     0.22689849
Si     1.65717140     4.59273658     7.81792523    -0.26082224     0.46996877     0.07564899
Si     1.53274231    11.04020567     1.65840642     0.15833667     0.32638657    -0.12485452
Si     1.62439826    11.04161186     7.83246804    -0.15128121     0.17075953    -0.27219239
Si     7.88693759     4.71392270     1.46872603     0.13934398     0.23473260     0.18359736
Si     7.98384647     4.67607566     7.76014790    -0.15335807     0.08678475     0.12390999
Si     7.89628283    11.07704488     1.59765192    -0.26594985     0.03714563    -0.25408122
Si     7.90814032    10.97409467     7.77503248     0.07142611     0.14779644     0.06005458
Si    12.62072006    12.80814571     3.11466689    -0.14117445    -0.35201478    -0.08639294
Si    12.55379831    12.67852648     9.31201862     0.15521748    -0.28988662     0.05457166
Si     0.05980740     6.15461414     2.91826147    -0.05418976     0.59870559     0.42908633
Si     0.04303857     6.27006718     9.43498168    -0.21972154     0.02129117    -0.12251614
Si     6.32325159     0.05424729     3.06232918    -0.00390859     0.08924962     0.20526376
Si     6.50705588    12.59199330     9.33547021    -0.41426110     0.16878216     0.06676175
Si     6.37750408     6.27130801     3.17642174    -0.27898943     0.31736702    -0.15246767
Si     6.41236545     6.36737440     9.18661046    -0.49414322     0.01009167     0.55764139
Si     1.63281727     1.74154608     4.63064302    -0.08201888    -0.29837120     0.01190063
Si     1.59548606     1.63783348    10.90497561     0.26849473    -0.09763047     0.10236247
Si     1.51547204     7.89457180     4.56719284     0.10699908    -0.21142015     0.30235133
Si     1.47942974     7.94262750    10.94386278     0.38273326    -0.01975755     0.15194926
Si     7.81129427     1.71081317     4.56482356    -0.05227974    -0.49446440     0.30948225
Si     7.98695993     1.53672257    10.96000108     0.09825641    -0.11097226    -0.18692598
Si     7.82067321     7.85795511     4.66572584     0.53633231     0.09486343     0.16097945
Si     7.75053653     7.88087896    10.96021202     0.46930778    -0.09850937    -0.14300439
Si    -0.12495673     3.06374171     0.00376697     0.59416592     0.15092716    -0.22927167
Si     0.01845128     3.21718968     6.15758284     0.18289089    -0.19515397     0.06082752
Si    -0.08531646     9.59934305    12.59224046     0.03615709    -0.31913149    -0.58140481
Si    12.53091873     9.45486795     6.18520664     0.26479730     0.07810717     0.03283636
Si     6.34356827     3.28924392    24.80201916    -0.33280924    -0.42275459     0.19475290
Si     6.25867794     3.10286416     6.24684037     0.17502485     0.36483395    -0.09648003
Si     6.27226505     9.43915761    12.66064116     0.07939585     0.22862241    -0.64174610
Si     6.35111825     9.47611193     6.18449292    -0.40910113     0.07531974     0.13416681
Si     4.66945775     4.84976280     4.86439611     0.20123231    -0.35383680    -0.51846236
Si     4.79472205     4.89392416    10.89199031     0.09782307    -0.60486555    -0.13896894
Si     4.71751179    11.15406173     4.70138342     0.29625365    -0.43125150    -0.27273887
Si     4.92107422    11.17328347    10.92112837    -0.37581050    -0.40815926     0.05496161
Si    11.16300438     4.77838040     4.58571905    -0.36897668    -0.30333227     0.04415189
Si    11.06540023     4.76739546    11.04000537     0.01267524    -0.01146577    -0.18716028
Si    11.01301897    11.17483185     4.61968911    -0.08519255    -0.18995158     0.31628567
Si    11.02469593    10.96321486    10.85367361    -0.03847066     0.30671057     0.29840267
Si     3.11413134     0.09805456     0.18611012     0.09711734    -0.28903830    -0.58927923
Si     3.16438987    12.59554093     6.18967353     0.03731075     0.40481359     0.31047219
Si     3.24552701     6.45347245     0.06266257    -0.32467005    -0.47012490    -0.11433832
Si     2.97164359     6.35416761     6.33184524     0.61883533    -0.05361023    -0.32035941
Si     9.27605860    12.62394652    -0.04912919     0.65109706     0.15497421    -0.03685590
Si     9.33416955     0.04925919     6.24560998     0.28247267    -0.24137998    -0.28056329
Si     9.47847532     6.32176732    -0.04115886    -0.11973420    -0.15414503     0.07989569
Si     9.51042348     6.25689200     6.22272569     0.00439795     0.13722870    -0.10932507
Si     4.83829865     1.67084607     1.55671537    -0.22766374     0.05373438     0.04522799
Si     4.80268554     1.49012850     7.76253165     0.09180944    -0.05331151     0.16911697
Si     4.91507409     7.98840691     1.61956374    -0.48571029    -0.19873945    -0.10036122
Si     4.67694610     7.96580858     7.74074040     0.26494807    -0.09410615     0.08657285
Si    10.92150855     1.56746677     1.48710694    -0.01064365     0.03902947     0.19793633
Si    10.93587148     1.49724096     7.74541264     0.29501882     0.38279197     0.30670634
Si    11.01964425     7.86136857     1.50444656     0.06704784    -0.01339066     0.00621189
Si    11.04160756     7.81281478     7.79684216    -0.10049741     0.01690389     0.05586544
Si     3.28427626     3.29772293     3.14294274    -0.31438383    -0.28671786     0.01577572
Si     3.34779601     3.06155835     9.41815074    -0.51656091     0.32974011    -0.33494347
Si     3.25103074     9.46761159     3.16487974    -0.25030154     0.22987589    -0.06530409
Si     3.23790315     9.56415559     9.38480313    -0.16914444    -0.08793873    -0.10161073
Si     9.38522290     3.16874362     3.04030695     0.25334910     0.07399137    -0.14886200
Si     9.55726715     3.12711008     9.47382383    -0.23647064    -0.08639142    -0.35279089
Si     9.48925250     9.47840327     3.16476163    -0.20977567     0.03474286    -0.31591606
Si     9.42361285     9.33735831     9.37894548     0.03567293     0.30018085    -0.10421651
Si     1.52368818     4.77753746    14.13133446     0.22108692     0.05380262    -0.49358773
Si     1.49355057     4.70677680    20.28192721     0.34062350     0.12169751     0.08860651
Si     1.68081744    11.18396451    14.02899653    -0.42592797    -0.24575493     0.08317143
Si     1.54654631    11.01309829    20.30627584    -0.02192723     0.43614969     0.06078698
Si     7.83975627     4.55744795    14.10841183     0.30668065     0.53505456    -0.14874288
Si     7.96924104     4.80803025    20.20103152    -0.31825066    -0.07806534    -0.07030905
Si     7.86102836    11.08887223    14.05172628     0.09676175    -0.24775480     0.19029722
Si     7.87994057    11.08794900    20.30921322    -0.12710291    -0.14025003    -0.11531325
Si    12.67695410    12.75685741    15.57372515     0.04772039    -0.35673016     0.01933172
Si    12.60432114    12.79152980    21.88188283     0.17664537    -0.59397960    -0.23210253
Si    -0.09269056     6.43221274    15.50059441     0.15270692    -0.21019478     0.40106869
Si    -0.07389671     6.30373126    21.94373926     0.11207609    -0.19054836    -0.31131339
Si     6.38564359     0.02809452    15.64227158    -0.01905020    -0.10598432    -0.28691107
Si     6.22484514    12.61174953    21.76488985     0.02369272     0.41396028     0.03523637
Si     6.37863426     6.25333191    15.64290750    -0.66065693     0.04448157    -0.17290448
Si     6.33758658     6.28093975    21.85769383    -0.15128243     0.29408854    -0.10042463
Si     1.78165799     1.51246449    17.16193426    -0.31646118     0.21685287    -0.06100881
Si     1.65470308     1.56909822    23.38197800    -0.51265860     0.23066895     0.19616279
Si     1.55987682     7.85852677    17.16427169    -0.34159923     0.23685950    -0.06103105
Si     1.46960512     7.83230140    23.50000015     0.22369176     0.41924632    -0.19679812
Si     7.99073611     1.56378037    17.25116924    -0.12758252     0.00578308    -0.28660941
Si     7.78521175     1.54144235    23.18045446     0.15443215     0.18586627     0.41094333
Si     7.69658973     8.09600119    17.15328170     0.48853555    -0.46268523    -0.03321104
Si     7.84762732     7.89998885    23.39516012     0.19571415    -0.03693451    -0.00933039
Si     0.04824306     3.27763692    12.57586365    -0.31978130    -0.32329220    -0.20553192
Si     0.10065182     3.16666091    18.61296396    -0.17297694     0.01927564     0.30049965
Si    -0.08685085     9.48593323    24.95114223     0.27407390    -0.08451831     0.08130178
Si    12.45529144     9.53812552    18.72191467     0.50658286    -0.20329940    -0.04893442
Si     6.41080584     3.11480006    12.43657387    -0.01415801     0.00437086     0.26339456
Si     6.43518967     3.25118383    18.64766126    -0.30176342    -0.24524814     0.13570228
Si     6.28019170     9.55768344    24.88653448     0.13564269    -0.13394314     0.38368425
Si     6.17036356     9.66571625    18.74296067     0.35040903    -0.52393007    -0.14507216
Si     4.74929587     4.65801209    17.08679067     0.32995826     0.18020499     0.23334774
Si     4.61250198     4.83784885    23.38551044     0.64442760    -0.09599725    -0.11198617
Si     4.67754673    11.09681836    17.05759311     0.22094634     0.08738743     0.66031396
Si     4.55880540    11.13583699    23.42589083     0.44992554    -0.09745476    -0.08537000
Si    11.09243819     4.89604424    17.13200003    -0.25888476    -0.29248524    -0.21474011
Si    11.06517960     4.64699895    23.39529056    -0.36494535     0.27272427    -0.09469172
Si    11.05301043    11.10790150    17.05672551    -0.24913669    -0.14890565     0.37071982
Si    11.10779969    11.12310956    23.37312505    -0.52223754    -0.19320375     0.18773267
Si     3.29803185     0.04775440    12.38457667     0.03405875     0.05995693     0.27936828
Si     3.30387075    12.63131675    18.86965574    -0.51179725     0.09056871    -0.82351148
Si     3.12285998     6.35549254    12.44508179    -0.07253583     0.02276694     0.22448814
Si     3.12988126     6.28578337    18.77523860    -0.01634244    -0.05103067    -0.21724260
Si     9.52186306    12.52755614    12.43935221    -0.31261259     0.33837929     0.12670994
Si     9.51543108    -0.13094746    18.73378721    -0.10017356     0.53206468    -0.07870412
Si     9.31573653     6.30725419    12.47765277     0.21973073    -0.02777691     0.11929137
Si     9.37319456     6.47240827    18.59703051     0.21150826    -0.11299215     0.45260608
Si     4.96533196     1.55152653    13.96939119    -0.52563733     0.01867510     0.07181862
Si     4.73590704     1.73781756    20.20434069     0.23220992    -0.46840566     0.31294352
Si     4.66779676     7.81445551    14.06794551     0.10808726     0.24307594     0.12566915
Si     4.75431985     7.88303370    20.32917065    -0.27130169     0.22474240    -0.09959958
Si    10.96930182     1.54609008    14.04509342     0.48839828     0.16903979     0.06308736
Si    11.03107674     1.53745063    20.21188574     0.09833431     0.13177724     0.05195434
Si    10.81572464     7.98336848    13.97742452     0.35351884    -0.11758466     0.28211528
Si    10.94321193     7.92859865    20.27532743    -0.02233593     0.05110963     0.05510912
Si     3.29360945     3.03854823    15.52147050    -0.05710819     0.24580759     0.29324168
Si     3.12855683     3.20392137    21.80360342    -0.07105650     0.04758625     0.02775186
Si     3.05831882     9.42413290    15.61297547     0.41032600     0.21772209    -0.16477625
Si     3.08160244     9.50247134    21.83615438    -0.01263605    -0.20959657     0.25663745
Si     9.48785569     3.11871386    15.65262652    -0.11648923    -0.01218715    -0.11544862
Si     9.44591356     3.13746702    21.67229053     0.11430103    -0.07195389     0.22413090
Si     9.32124534     9.48915506    15.59016592     0.10642222     0.35622481    -0.14244708
Si     9.49220740     9.42518799    21.92301682    -0.17547360     0.30360758    -0.39080226
128
Lattice="9.863 0.000 0.000 0.000 9.737 0.000 0.000 0.000 20.451" Properties=species:S:1:pos:R:3:forces:R:3 energy=-609.31787109 virial="493.30056763 -10.62643528 -2.73510242 -10.62643528 498.96423340 21.61897278 -2.73510242 21.61897278 505.67251587"
Si     1.33324025     3.73755065     1.17742508    -1.80238807    -2.18271351     1.39090168
Si     1.28015270     3.75076501     6.43910477    -0.80475938     2.58569384    -0.22457862
Si     1.38906137     8.80709716     1.39965118    -0.13696364     0.03067735    -0.15345152
Si     1.13593782     8.46005250     6.18678715     1.88963318    -0.12360597     1.20556593
Si     6.07176172     3.77664122     1.23020739    -0.65643686    -1.68570185    -0.06080945
Si     6.27102832     3.59996044     6.50288023     0.78364110     1.92298710    -0.16144826
Si     6.07546400     8.63921769     1.19916924     1.60283709     1.98429346    -1.60040224
Si     6.32038909     8.38262116     6.32529947     0.00151777     0.05314623     0.38030481
Si     9.72018051     9.68027806     2.59053421    -1.18318236    -0.55555677    -0.42407387
Si    10.07125396     9.68505776     7.69985248    -0.26514041     0.11676741     0.62182891
Si     0.00422487     4.86307868     2.48033708    -1.39008737    -0.83650756    -0.43381900
Si    -0.09867137     4.95003860     7.84332561     1.87717223    -0.98916364     0.79514021
Si     4.92559288     0.14397834     2.43876623    -1.03680921     0.36382991     0.81076729
Si     5.09568862     9.61574483     7.67837959     0.61467385    -2.34404612     0.60421228
Si     4.98290151     4.99920162     2.54740675     0.38762915     1.50664496     2.21680975
Si     4.90721900     4.86619267     7.61205788     0.80943108     0.04568375    -0.22028735
Si     1.17386692     1.24911695     3.54022563     0.92431003    -0.72331840     2.97708654
Si     1.41977851     1.15470194     9.06928008     0.19016071     1.52375424    -1.40364623
Si     1.24825114     5.96769410     3.77599277     0.09931828     0.22589271     0.01440347
Si     1.33378785     6.15082820     9.02381617    -0.25067544    -1.34737706    -0.12937602
Si     6.02857390     1.33240439     3.84441515     1.44869733    -0.54537272     0.86868227
Si     6.39595867     1.02548689     8.87259822     0.27355519     0.48008323     0.35491550
Si     6.46629271     6.11195356     3.95259985    -1.79513645     0.78637636    -1.07109404
Si     6.07244987     5.93225351     9.08535241     0.47666359     0.41842788    -1.21633148
Si    -0.06717714     2.50711373    -0.05316062    -1.33033133     1.44993675     1.09576964
Si     0.20322548     2.39451796     5.15670372    -1.49623179    -0.80898678    -0.19557619
Si    -0.06363202     7.27612096    10.14687203    -1.91618288     0.32322422    -0.26160115
Si     9.84393938     7.17846655     4.98137012     0.14782029    -0.76207608     0.37378377
Si     4.85370981     2.44590556    20.40904098     0.20789808     0.47263944     0.69783241
Si     4.96956917     2.62389512     5.21168378    -0.83933663    -1.44262469     0.38970634
Si     4.86071462     7.19299639    10.29859431     0.03718660    -1.37791920     1.35931420
Si     4.92261749     7.24778069     5.09460745     1.27053738    -0.40038541    -0.54077411
Si     3.80048931     3.61681528     3.77807501     0.88999021     1.28812265    -0.28939655
Si     3.67145715     3.55162456     8.74945937     1.81685281    -1.25350809     2.82161021
Si     3.83760471     8.51636410     3.77325213    -1.16730368     1.56098557     0.28670526
Si     3.83557702     8.37060849     8.94758956     0.61798239     2.52073860    -0.16699642
Si     8.65386746     3.41553466     3.67276422     1.46909547    -1.61908865    -1.09288430
Si     8.48132483     3.69352301     9.04471268     2.20357418    -0.44369918     0.72069454
Si     8.58974451     8.36626785     3.81364509    -0.63586134    -0.86952615    -1.31712508
Si     8.53446993     8.68005891     8.94717225    -0.35001838    -0.95808625    -0.87428182
Si     2.54353597     0.03512919    -0.09585610     0.01395413     0.92384613    -0.10676989
Si     2.53466557     9.84727478     5.20823709    -0.60855269    -0.03343745    -2.22532630
Si     2.46835269     4.86956040    -0.08059557     1.72505569     0.35387230    -2.79421520
Si     2.61547261     4.92290538     5.01030238    -0.43673149    -1.20602298     1.11344051
Si     7.29535245     9.89732540    -0.23733710    -1.00441134    -1.24368429     2.35388899
Si     7.44966745    -0.06905273     4.97675630    -0.86003500     2.82957006     1.01456070
Si     7.34395022     4.81440103    -0.04961743     0.75266373     0.41826463     0.66321421
Si     7.53231925     4.61971761     4.98192052    -0.52677858    -0.58948165     1.94132781
Si     3.55950319     1.36190261     1.28378865     0.75438094    -1.49545074    -1.27492976
Si     3.97290390     1.11275905     6.48001886    -0.31383288     1.23496211    -1.91446161
Si     3.47866675     6.01005100     1.37705336     0.59102416     0.94014084     0.28119096
Si     3.68879167     6.13469710     6.41558135    -0.85405624     0.33991706     0.58966923
Si     8.58118260     1.06569739     1.16515128     1.63434005     0.79346412    -0.40619674
Si     8.65683890     1.15143905     6.51610555     0.98719871    -0.99290365    -2.39372110
Si     8.60746006     6.05150008     1.12349002     0.49110156     1.12330306     1.01618004
Si     8.74650121     5.88573968     6.28359553    -1.49916482     0.75435042    -0.51868010
Si     2.50161491     2.53209890     2.57840872    -1.57557797     1.75897121    -0.19017237
Si     2.54178117     2.37254744     7.42223818    -1.48642862    -2.21201086     1.06271875
Si     2.37136552     7.38160104     2.63051850     0.55841082     0.02753491     0.40338016
Si     2.49269238     7.37250141     7.75438204    -2.13116312     0.47272927    -3.24313116
Si     7.26575742     2.30477788     2.29420105    -0.19469522     0.52853525     0.99453461
Si     7.51447781     2.44077561     7.72077733    -0.46594870    -0.78439891    -0.02640277
Si     7.27916342     7.38627882     2.36536105     1.44281995    -1.51474535     0.34252492
Si     7.42114033     7.05385074     7.68209180     0.77199805     0.18382171     0.84950972
Si     1.20596518     3.78581372    11.32557031    -0.82662058    -2.89083958     2.37214828
Si     1.34462978     3.68413026    16.61621727    -0.94129848    -0.00473421     0.31906658
Si     1.21603219     8.45419384    11.37899276     0.72745329     0.44933766     0.23489878
Si     1.22934055     8.59494252    16.60795261     4.03554916    -0.51557755     1.71518755
Si     6.29606149     3.76767110    11.75604320    -0.91808116    -0.95224524     0.30830148
Si     6.20317102     3.77427377    16.54644983    -0.54678005     0.66371918     1.37478721
Si     6.03748622     8.54515858    11.42998731    -0.57856220    -1.48456597     0.96426052
Si     5.92757922     8.56373431    16.59320829     0.60361147     0.47945023    -0.34960753
Si    10.09181726     9.62071540    12.92281128    -0.01624714    -1.74009585    -0.46889925
Si     9.83895873     9.55804387    17.92186668    -1.46866822     1.23836851     1.90662706
Si    -0.12188445     4.81983174    12.75411159    -0.00740738    -1.06426275     0.92043948
Si    -0.12308857     4.72512780    17.90048790    -0.01167804     0.64822203     0.51016867
Si     5.00444321     0.01538645    12.83974041    -0.81612885     0.27961779     0.38664094
Si     4.68857762     9.78716567    17.86625338     3.32057524     0.88554752     1.24769723
Si     4.69012891     4.82206758    12.73922899     0.65197086    -2.68123698     1.62469912
Si     4.89352157     5.21754102    17.76231798     1.14972878    -0.43111905    -1.15769625
Si     1.17660823     1.39991332    13.97124496     0.00667844     0.82976437    -1.12822938
Si     1.09451679     1.18767742    19.24965224     0.69392538    -0.36522222    -1.82411671
Si     1.07793884     6.13996388    14.04317332     1.18745732     0.13785189    -0.93687952
Si     1.02492798     6.08688187    19.35573587    -2.37781429    -0.95993376    -0.25152713
Si     6.29860370     1.17055735    14.12157424     0.02391572     0.01084434    -0.10543261
Si     6.12097709     1.37451531    19.08028080    -3.14716101    -0.34889966    -1.67716432
Si     5.95200280     6.01571012    13.98364862    -0.02422351     0.60210776    -0.88392299
Si     6.18452436     6.11293290    19.26989137    -1.63987362     1.05564511     0.05906252
Si    -0.07898026     2.30090105    10.19825514     0.53579944     1.17612553    -0.49765277
Si     0.04403978     2.55501567    15.23877282     0.67170537     1.11226988     2.27415037
Si     0.04413722     7.57375551    20.65259721    -0.31406018     0.03711346    -0.26820713
Si     9.90972928     7.37430539    15.49533173    -2.32905746    -2.36648035    -0.91534972
Si     5.35651229     2.29988536    10.32831837    -1.20895958     1.36804390    -0.73241764
Si     5.05152582     2.33477195    15.42371643     0.30245969     0.26385275    -0.06306462
Si     4.87723072     7.27100031    20.64892616    -1.50718510    -1.55442405    -1.32345164
Si     4.84320490     7.05359986    15.49941995     0.36245635     0.56725436    -0.67523217
Si     3.72027968     3.62654639    14.32454051     3.68518734    -2.47793436    -2.42344093
Si     3.90083325     3.82659688    19.06587425    -0.78025401    -0.24222319    -0.22904551
Si     3.85056607     8.68866002    14.35215474     0.08340834    -1.18141079    -0.41004401
Si     3.75380189     8.52451932    19.17769133     0.41880590    -2.81677771     1.56184852
Si     8.44264633     3.56410505    14.15361482     0.50031233     1.92777681    -0.70309609
Si     8.26403113     3.51572358    19.08671743     3.21078610     0.50406212     0.83460319
Si     8.67965751     8.49862105    14.09874088    -0.85728908    -0.34400064    -0.23156099
Si     8.45305702     8.48822981    19.24630341     2.53708649    -0.99233317     0.08462580
Si     2.68308284    -0.07771938    10.27196601    -0.48581761    -1.49859655    -0.25504464
Si     2.25424337     9.84562804    15.20568364     1.10933018     0.03592794     1.06778646
Si     2.57798966     4.79790811    10.15370672     1.68367314     0.77444214    -0.93926454
Si     2.46885963     4.84619638    15.21610091    -3.80045867     3.47975159     0.75075334
Si     7.39672432     9.76053603    10.48397615     0.96861452     0.63483834    -1.24623799
Si     7.45574855    -0.03682155    15.46790249     0.16001117    -0.75903392     0.60370022
Si     7.41090314     4.88881989    10.36894354     0.03497065     0.74640447     0.26137677
Si     7.35714068     5.03682740    15.23039474     0.17529930     0.21193734     0.23365879
Si     3.79602652     1.22461683    11.48676678     2.03332520     0.17778623    -1.44967198
Si     3.63595862     1.23479140    16.58412843    -2.96048880     1.08270466    -1.85042822
Si     3.54960396     6.07336131    11.62262248    -1.46579552     1.19883943    -2.18134332
Si     3.30310489     6.18996455    16.64243274    -0.77664018    -0.48892188     0.22597632
Si     8.82996468     1.03530028    11.64157142     0.78547680     0.30529922     0.41239041
Si     8.85847474     1.22308315    16.54402954     0.04239058    -0.39811081     0.65802765
Si     8.55025639     6.20541484    11.60086577     0.58961850     0.95742685     0.20034221
Si     8.47057300     6.13501719    16.68030861     1.42181408     0.29871839     0.74993271
Si     2.78000719     2.28077377    12.93388520    -1.56870890     2.77879214    -0.43055981
Si     2.47966881     2.47660748    17.99936679     0.13413021    -0.70977914     1.12120152
Si     2.54678011     7.49178203    12.85007881    -0.71534574     0.81647933     2.15805364
Si     2.33078832     7.25567726    18.17649838    -0.91752684     2.01594257    -0.76262110
Si     7.52884017     2.30688187    12.77588062    -0.75713867    -0.79866421    -1.47535801
Si     7.37561089     2.31601707    17.71470276    -0.41539174    -0.91876316    -3.87814403
Si     7.22635611     7.38301978    12.85128805     0.08499777     0.55303079     0.50120527
Si     7.21891596     7.41710458    17.93218888    -0.50076711    -0.32089829    -1.59911847
128
Lattice="12.028 0.000 0.000 0.000 11.893 0.000 0.000 0.000 25.197" Properties=species:S:1:pos:R:3:forces:R:3 energy=-623.23474121 virial="-306.84579468 0.51983100 -1.20462656 0.51983100 -294.66958618 -0.47018191 -1.20462656 -0.47018191 -367.61053467"
Si     1.47313971     4.53405625     1.48585412    -0.13132283    -0.15656197    -0.05371350
Si     1.53394557     4.64442028     7.88181264     0.27079844    -0.99875510    -0.05871411
Si     1.64254078    10.70047754     1.68264075    -0.61983049    -0.92427975    -0.25200146
Si     1.51578182    10.41023194     7.69972295     0.14380005    -0.08856337     0.39360800
Si     7.36685842     4.52404836     1.55699439     0.47263145     0.03460044    -0.05935899
Si     7.64981237     4.50299885     7.97240311    -0.18174300    -0.51783222    -0.32701328
Si     7.42082859    10.59227875     1.43611917    -0.07019685    -0.49848682     0.35014191
Si     7.72157960    10.22847744     7.81251036    -0.38539928     0.22835575     0.19937557
Si    11.85231885    11.81583259     3.14378856     0.65878391     0.41428021    -0.13115318
Si    12.23264901    11.80003806     9.52277687    -0.56912196     0.25172603    -0.36413455
Si    -0.09763001     5.89663275     3.06986696     0.49965030    -0.00570626    -0.08887328
Si     0.02713379     5.98886504     9.62355052     0.04095553    -0.24457176    -0.52389592
Si     5.94909227     0.18200469     3.09082280     0.00491954    -0.31647411     0.08703620
Si     6.25631199    11.66275210     9.45533560    -0.12123663     0.42655391    -0.07187775
Si     6.08754070     6.18502916     3.22251178    -0.28156239    -0.86365110    -0.21012342
Si     6.00115709     5.89804393     9.45830728     0.32694206    -0.08446404     0.13212892
Si     1.50489996     1.42828060     4.64411336     0.02229451     0.35206735     0.32668918
Si     1.72166621     1.43024769    11.06816609    -0.45709139    -0.24564469    -0.29203334
Si     1.54136565     7.30491826     4.65916283    -0.16649823     0.35457587     0.12886748
Si     1.58556835     7.44247272    11.07623760    -0.37123871     0.06630541    -0.34976071
Si     7.48048205     1.56286552     4.77076948     0.13826014    -0.16410714    -0.32671010
Si     7.78122001     1.32517250    10.99456622    -0.30141044     0.37965655     0.31875649
Si     7.75367119     7.48195892     4.78224103    -0.66115147    -0.34846345    -0.46758538
Si     7.50633992     7.29493570    11.09892460     0.05819680     0.18602553     0.09059528
Si    -0.12900381     3.04649503    -0.04491016     0.25707066    -0.41091132    -0.14703947
Si     0.14446683     2.88854650     6.36375684    -0.29954398     0.05685244    -0.41586050
Si    -0.13266580     8.91755651    12.50766436     0.61246324     0.09992045     0.43375149
Si    12.03055961     8.73305836     6.18441547    -0.07791862     0.27012864     0.13720539
Si     5.90604655     3.08273747    25.17554048     0.18760388     0.15603314    -0.27255741
Si     6.10349949     3.09811929     6.40909616     0.18350157    -0.38903481    -0.36866981
Si     5.93971208     8.73266031    12.67128675     0.12080738     0.55281562    -0.16039610
Si     6.10687199     8.87451762     6.26941188     0.14172347     0.22158512     0.19311760
Si     4.69192607     4.52215304     4.66020751    -0.41973996     0.16201797     0.44717759
Si     4.67814026     4.18776903    10.97156886    -0.16983041     0.80427432    -0.07302152
Si     4.57729391    10.48691304     4.70997429    -0.17845024    -0.10685317    -0.03653044
Si     4.62759267    10.29342682    11.00674212    -0.19361547    -0.03394645     0.03888036
Si    10.59992958     4.12127279     4.50355978    -0.25259548     0.76729482     0.47011417
Si    10.51671829     4.45328957    11.16969550     0.30086681    -0.07328825    -0.19723611
Si    10.40547801    10.20014798     4.64441064     0.36845151     0.57124269    -0.12821224
Si    10.44265705    10.47922395    10.96121913     0.58931017    -0.57831115     0.41996348
Si     3.06631453     0.08710776    -0.14654615    -0.33355114    -0.03377056     0.69325453
Si     3.07458630    11.98289494     6.23377551     0.12863849    -0.49062926    -0.02721062
Si     3.01183185     5.98343575    -0.20045674    -0.44328061     0.08143517     0.77015543
Si     3.16330496     5.94279551     6.24917508    -0.42010728     0.27554172     0.08459381
Si     8.89886694    12.03140060    -0.19647582     0.11854920    -0.29681462     0.27774471
Si     9.07866153    -0.00186300     6.22252302    -0.01615375    -0.43728539     0.23122807
Si     8.94880235     5.95132341    -0.04451435    -0.15645500     0.09211149    -0.14047553
Si     9.17353669     5.65749417     6.19433004    -0.13632606     0.76063907     0.20463222
Si     4.38051602     1.59673058     1.50850627     0.37248701     0.14740632    -0.00941964
Si     4.74035644     1.41261711     7.84994207    -0.59628129     0.17174080    -0.06638736
Si     4.28547663     7.41835515     1.69564256     0.74310744     0.37437811    -0.24415758
Si     4.50904173     7.48591530     7.89365554     0.21531011    -0.25883713    -0.25256222
Si    10.51378103     1.42712734     1.41157572    -0.61816716     0.17597732     0.21757400
Si    10.69060683     1.37707057     7.89823807    -0.02005323     0.28441045     0.00820171
Si    10.54246363     7.49969468     1.49605440    -0.28556624    -0.09548346     0.24359441
Si    10.57362933     7.24266594     7.79222333     0.22034097     0.10232089     0.29298872
Si     2.95271959     3.09771093     3.12963133     0.17197119    -0.32178810    -0.24908143
Si     3.03190062     2.85681926     9.26533016     0.55030572     0.22075421     0.69142789