128
Lattice="12.622 0.000 0.000 0.000 12.668 0.000 0.000 0.000 24.938" Properties=species:S:1:pos:R:3:forces:R:3 energy=-595.01422119 virial="-357.23892212 -0.86860919 -0.36308572 -0.86860919 -361.95803833 -0.75873858 -0.36308572 -0.75873858 -341.34222412"
Si     1.41440356     4.62469670     1.64739844     0.34304744     0.04281111    -0.20783637
Si     6.28458196     9.33723654    12.44235009    -0.16691920     0.44121310    -0.01908832
Si     6.34503429     3.42503005    18.67086545     0.16602251    -0.33309099     0.26404512
Si     6.31194023     3.22786454    12.43711051     0.22559571    -0.33052129     0.01696383
Si    -0.05798407     9.34041825    18.74463928     0.32598847     0.61950564     0.10360852
Si    -0.01827716     9.41326961    12.44720353    -0.15299587     0.16609918     0.04850713
Si     0.06999655     3.20222317    18.68027947    -0.10666615    -0.00762990     0.13480160
Si    -0.04763996     3.14912392    12.37978533     0.21438006     0.03848976     0.09732926
Si     7.71030392     7.97546831    23.48898377     0.35292214    -0.11327916    -0.22655484
Si     8.07203186     7.97200317    17.08227022    -0.51200205    -0.17622635     0.33870238
Si     7.95183540     1.70125790    23.38970721    -0.08004652    -0.16978861    -0.29628772
Si     7.86713614     1.71007169    17.19186207    -0.02921923    -0.00786141    -0.20160851
Si     1.71329047     7.85129027    23.43044879    -0.60329914    -0.02591193    -0.18480825
Si     1.66582630     7.91863735    17.14592392    -0.30660433    -0.05717340    -0.23309666
Si     1.62585722     4.86133511    20.22631506    -0.22276920    -0.41917357     0.00974847
Si     1.45856250     1.54354100    23.42951241     0.42726058     0.12608272    -0.05875668
Si     6.28826284     6.43523106    21.78479779    -0.16975510     0.21713826     0.15142727
Si     6.36484365     6.33835568    15.41776472     0.11286111    -0.07269114     0.34549582
Si     6.33250505    12.88216762    21.78344947    -0.06124932    -0.37405354     0.20618454
Si     6.21326525    12.81653429    15.61507943     0.13721868    -0.23970929    -0.10865471
Si     0.01999138     6.32813730    21.83373373     0.01094731     0.30688179     0.18312982
Si     0.04360422     6.43040561    15.49591007    -0.15801649    -0.34124863     0.34669673
Si     0.05489093    12.52321762    21.83636513    -0.24546501     0.24401510    -0.03458369
Si    -0.01860607    12.66063187    15.69833215     0.26407790     0.03800579    -0.35074228
Si     7.79240594    11.08026087    20.13317441    -0.02780627     0.09937909     0.59572411
Si     7.72981667    11.15572650    14.04221611     0.41045421    -0.15700480     0.16613369
Si     7.95681938     4.93737694    20.34874063    -0.06250859    -0.40317398    -0.48420766
Si     7.99614922     4.66551291    13.98623634    -0.29499978     0.46508819    -0.09923384
Si     1.61516608    10.94450940    20.22266609     0.05995388     0.24870893     0.23933233
Si     1.59831194     1.58819183    17.19941090     0.06755912    -0.07091843    -0.01822641
Si     1.49983592    11.02964570    14.04814262     0.31007975     0.00572263     0.10664485
Si     6.33148105     9.41058390    18.65778930     0.05119228     0.63804263    -0.23806468
Si     9.53292295     6.36291228    18.76364991    -0.10441414     0.27993584     0.05414677
Si     9.61558971     3.15323226    21.77411686    -0.40005663     0.45907944     0.32728642
Si     9.56261728     3.20245686    15.57210630    -0.16719443    -0.13898954     0.01471608
Si     3.24199509     9.52955865    21.78769288    -0.03627532    -0.08921148     0.00502671
Si     3.17788508     9.53500070    15.58895666    -0.21217524    -0.18616927     0.05355297
Si     3.04226329     3.24526536    21.84793365     0.26208866     0.14644915    -0.12526971
Si     3.11850244     3.15315225    15.63506556     0.14931799     0.19795015    -0.32687959
Si    10.96636921     7.99086079    20.47972106     0.11960997    -0.52508008    -0.60883951
Si    11.05439214     7.90896194    13.98900480     0.14615159     0.10978477     0.06503879
Si    11.14273838     1.58106706    20.24000808    -0.21246418    -0.04159133     0.08677325
Si    11.14856065     1.58700639    13.94929536    -0.54023850    -0.11077237     0.48460466
Si     4.74570791     8.01370939    20.14216399     0.04223178    -0.47624862     0.32808048
Si     4.64146759     7.84415796    13.99048235     0.16101241     0.09689879     0.02200268
Si     4.71222897     1.76782866    20.35653213     0.09522509    -0.20443377    -0.31198588
Si     4.63184519     4.88565365    23.28116618    -0.01254965    -0.52146035     0.36105126
Si     4.88116560     4.86582953    17.04534320    -0.51952082    -0.16681238     0.15039098
Si     9.49114996     6.31311727    12.44496320    -0.02554710    -0.13851060    -0.18348691
Si     9.32334752    12.72312463    18.74383359     0.58898038    -0.08756861    -0.19594297
Si     9.37737174    12.61490468    12.55362992     0.18102358     0.25093275    -0.39281982
Si     3.19546424     6.33339733    18.60409047     0.22097600     0.37009966     0.16226107
Si     2.96115354     6.28552741    12.54996665     0.60994881     0.21398024    -0.33609894
Si     3.27871958    12.63902532    18.77301961    -0.54074192     0.14671350    -0.07747696
Si     3.18204695    12.54035034    12.51490267    -0.06645429     0.37136948    -0.17919481
Si    11.02204467    11.01199559    23.41291258    -0.00532731     0.09501213    -0.08264771
Si    11.09666517    11.08794416    17.24809924    -0.39250654    -0.02037162    -0.13392296
Si    11.02006922     4.83375497    23.35335614     0.17275792    -0.48165429     0.08102860
Si    11.04567100     4.76243623    17.17312501     0.26224610     0.09334916    -0.12142226
Si     4.80720968    11.22351850    23.39214093     0.00674657    -0.09276149    -0.03248735
Si     4.70988566    11.11180467    17.17467079     0.25902233    -0.07357116    -0.12059375
Si     4.69872412     1.65111075    13.95890536    -0.00970660    -0.19846386     0.39125091
Si     1.45606658     4.72960538    14.05437239     0.17337063     0.07823406    -0.14731756
Si     9.33521070     9.60606874     9.32570103     0.17206271    -0.27450603     0.30321342
Si     9.38006092     9.39741232     3.20496547     0.31439376     0.24146578    -0.11989719
Si    -0.06564721     9.43313084     6.25306435     0.42122832     0.09259615     0.07267928
Si     0.02956599     9.40249857    -0.00248203    -0.07159712     0.25836897     0.23006701
Si    -0.00051097     2.99627669     6.16882144     0.17177784     0.12780614     0.28025019
Si    -0.11547221     3.10012185     0.03660438     0.29647750     0.19016093     0.00435022
Si     7.88758000     7.88414239    10.80733127    -0.09022664     0.09826811     0.26334694
Si     7.68563132     7.83252008     4.66793158     0.44432098     0.32325912    -0.36786252
Si     7.90237404     1.51086617    10.96117871    -0.17695740     0.36249173    -0.12767297
Si     8.02263473     1.50063306     4.77312243    -0.26928520     0.14671445    -0.43148986
Si     1.56613503     7.86497454    10.89535737    -0.11321954    -0.06002166     0.09753855
Si     1.53199735     7.89139440     4.68208371    -0.23573457    -0.05124825     0.02410976
Si     1.69118241     1.55622349    10.83531816    -0.29680496    -0.02517236     0.35926694
Si     1.72507975     1.47635719     4.67480051    -0.22436768     0.00863814     0.01965782
Si     6.39091342     3.23131373     6.17160971     0.14510703    -0.27844498     0.39832285
Si     6.36261270     6.35114797     9.26202392     0.02993855    -0.00354245     0.09222739
Si     6.31561872    12.72613466     9.39651763     0.04847518    -0.24871787     0.13058275
Si     6.43907665    12.62238603     3.12677839    -0.03869351     0.15861961     0.19948339
Si     0.06875773     6.23342477     9.30490045    -0.33250350     0.16840382     0.13119158
Si    -0.06739396     6.22207718     3.19686565    -0.09548768     0.10612592    -0.06282240
Si     0.06778613    12.58997373     9.41764626     0.01983892     0.17796390    -0.22886148
Si     0.13116617    12.52617461     3.20210534    -0.21245703     0.39633316    -0.18147230
Si     7.71980375    11.14499348     7.84957509     0.53865999    -0.21212760    -0.26736137
Si     8.08764637    11.13513163     1.63407956    -0.67200398    -0.22972023    -0.12780872
Si     8.02889987     4.74068217     7.75068513    -0.40208966     0.19277504    -0.03139637
Si     7.77732790     4.69641107     1.47667568     0.12458652     0.27541924    -0.22345835
Si     1.70544788    11.07090567     7.75958807    -0.29805404    -0.07869773     0.17969155
Si     1.59664128    11.11472038     1.57042801    -0.08794732    -0.26199368    -0.02094220
Si     1.58937602     4.61130089     7.66546494     0.15602279     0.44617671     0.34320378
Si     6.10454226     6.35827930     2.84984881     0.28212506    -0.06238198     0.89986908
Si     6.29362609     9.59641689     0.10797121    -0.03852169     0.07395914    -0.30671608
Si     6.19453654     3.24295574    -0.10511488     0.41917008    -0.10882810     0.27492735
Si     6.20971207     9.47703716     6.09499808    -0.07100687     0.09947848     0.53447706
Si     9.45713012     3.14545561     9.35426008     0.23046312    -0.22127864     0.07927775
Si     9.52834165     6.41350549     6.20302145    -0.31522071    -0.48920408     0.30032143
Si     9.52746737     3.08971870     3.04280675    -0.15405549    -0.01342931     0.44234377
Si     3.16897611     9.50023160     9.34341899     0.12518844    -0.08621292     0.06272824
Si     2.92693306     9.53019800     3.11709769     0.82227409    -0.00435657    -0.06888971
Si     3.25004558     3.25136543     9.37075145    -0.00213152    -0.46968538    -0.32492769
Si     3.17718702     3.11321727     3.13291114    -0.08558538    -0.02533817     0.17035124
Si    11.07069738     7.96638155     7.91937278    -0.13222161    -0.13086170    -0.64544332
Si    10.97567777     7.85205005     1.65521957     0.12775394    -0.13079903    -0.16900390
Si    11.15060519     1.44602795     7.91181812    -0.35099033     0.20785344    -0.37757224
Si    11.14977926     1.54277500     1.59761798    -0.31725425    -0.12907515    -0.15884131
Si     4.70482982     7.96493885     7.74275785     0.07966769    -0.14832258    -0.12384728
Si     4.55586123     8.07315210     1.49068597     0.05424119    -0.52585626     0.19022912
Si     4.87419160     1.61259408     7.84053518    -0.21711154     0.13267906    -0.19348890
Si     4.81901037     1.58042062     1.63880551    -0.18527909     0.12250984    -0.43614274
Si     9.44950212     6.33540570     0.00382828    -0.34954238     0.03995828     0.05705534
Si     4.71358030     4.78966414     4.67019289    -0.05831309    -0.02597005    -0.41570395
Si     9.47931543    12.55941676     6.36193401     0.06619051     0.17638218    -0.07372069
Si     9.56062071    12.70082263    -0.02618471     0.04820982    -0.05553152     0.36099434
Si     3.17682091     6.36987327     6.18724976    -0.15554219    -0.16620705     0.03471358
Si     3.03886069     6.18914126     0.06810330     0.22979584     0.65523815    -0.32505593
Si     3.34209586    12.64546777     6.23756693    -0.25580549     0.04746972    -0.01879420
Si     3.28149559    12.74844062     0.01869566    -0.41457748    -0.16911452     0.15269986
Si    10.90363548    11.08778230    10.94213223     0.25558859    -0.16328010    -0.00041491
Si    11.07045967    10.97927290     4.73158972    -0.16935074    -0.08090198     0.09690569
Si    10.97219393     4.70673662    10.84523296     0.33830166     0.04235343     0.18369642
Si    10.96926002     4.65559046     4.69910897     0.39450687     0.13187163    -0.23691399
Si     4.74958235    10.99624086    10.99706806    -0.07975198     0.04364783    -0.30660290
Si     4.75874156    11.08837000     4.60716583    -0.10274769    -0.10939503     0.07968044
Si     4.81780450     4.82049360    10.88599652    -0.30738795    -0.14917982     0.04851894
Si     9.52979167     9.62963586    15.66562092    -0.05000878    -0.25352672    -0.27422586
Si     9.21928232     9.50174700    21.94591544     0.58869350     0.14409581    -0.25417167
128
Lattice="9.855 0.000 0.000 0.000 9.746 0.000 0.000 0.000 20.484" Properties=species:S:1:pos:R:3:forces:R:3 energy=-609.75445557 virial="496.96630859 25.80454063 10.23842716 25.80454063 504.37350464 39.14184570 10.23842716 39.14184570 506.66180420"
Si     1.24190146     3.56696278     1.34577726     0.67342186    -0.37184867     0.46160012
Si     4.90999284     7.34298618    10.35034477    -1.91022873    -0.19858600    -1.42708516
Si     5.05941122     2.72285121    15.34791658    -2.25280452     0.05598067    -0.18537112
Si     4.87225811     2.40607140    10.26533375    -0.84534144     0.89176202     0.19673786
Si     0.09071392     7.46419723    15.58763075     0.22039087    -0.24625081    -1.45272017
Si     0.01979177     7.36044507    10.19185098    -1.20674610    -1.47750378     0.56101322
Si     0.03884549     2.34683956    15.43775895     0.03452692    -0.44087374    -1.22042203
Si     0.03376013     2.25904891    10.25496321    -2.40993500    -1.84690690     1.61761415
Si     5.99992532     6.25039876    19.35115449    -0.65284085     1.93678629    -1.15030515
Si     6.13341648     6.12141023    14.11062982     1.56562209    -0.08324885    -1.51762938
Si     6.38007426     1.30997820    19.12164587     2.15972376    -1.40885961     0.92493892
Si     6.12777560     1.43710697    14.06096794     0.82130188    -0.58936203     1.96449494
Si     1.09094345     6.35645407    19.13989956    -0.06424044     0.23752566     2.66491508
Si     1.05326094     6.14910086    14.03849537     0.88960218     1.66324496     2.11855531
Si     1.11631510     3.85448145    16.48354560    -0.11992696     1.68673718     0.65801603
Si     1.25615955     1.15534180    19.17403011     1.10792899     0.46761394    -2.20135546
Si     4.77309522     4.99056602    18.07543948     0.11080549    -1.58055544     0.46632516
Si     5.09013682     4.90318718    12.68525756    -0.66897404    -0.14635891     0.80371773
Si     4.86388456    10.11462783    18.03364573    -0.74602079     2.24787021    -2.84859252
Si     4.98183230     9.93721206    12.88517380    -0.41740707     0.32178539    -1.26575685
Si    -0.04735163     5.01889238    18.04598600     0.78087175    -3.58567810     0.07641783
Si    -0.00666831     4.82588231    12.85463097    -0.67600399    -0.77600217    -3.34442329
Si    -0.07943016     9.65773526    17.92648082     0.43138421     0.50216699     0.82582915
Si     0.18783775     9.69202885    12.87670356    -1.74853587     0.50977129     0.51292604
Si     6.01302794     8.79938247    16.77646429     1.67023039    -1.46244597    -0.58548170
Si     5.96304502     8.56195845    11.62732162     2.36686325     1.44338083     0.09326345
Si     6.19617531     3.93695448    16.66194314     0.12765059     1.21562052     1.29243541
Si     6.23207639     3.71665143    11.35455257     0.72316867    -0.77383864    -0.55694848
Si     1.39343647     8.56653501    16.86162000     1.36508882    -1.36593819     1.38474083
Si     1.39994398     1.27408909    14.08172296    -0.92438650     1.78463256    -1.42515421
Si     1.24508119     8.45037381    11.51450060     0.24172112    -0.09215029     0.20235565
Si     5.04042937     7.57293183    15.13954996    -0.62751555     0.52878523     2.96497440
Si     7.53955625     5.06315321    15.34082278    -1.74022651     0.30802944     0.34060580
Si     7.46116382     2.69770902    17.95567350     0.88885707     0.72548598    -1.09049881
Si     7.38247922     2.55296812    12.83266540     1.41109347     1.87327576    -0.79524672
Si     2.68153456     7.24723173    18.14515124     1.22959495    -0.19191779    -2.26790214
Si     2.46181742     7.27727991    12.82056695     0.39940566     0.17171080     1.14127612
Si     2.40295658     2.68967568    17.78275844    -0.93319166    -1.29163790     0.67172468
Si     2.45459769     2.60594695    12.69037904    -0.67802662    -1.13278627     0.58109367
Si     8.71588806     6.12322728    16.71012585    -0.85931861     1.40629959    -0.57897204
Si     8.50654405     6.08978881    11.51188761     3.60512042    -2.05953336    -1.75453734
Si     8.62974594     1.23723270    16.75061242    -1.20686042     0.97392869     0.53514510
Si     8.51098632     1.11146376    11.67104138     1.80968547     0.13981242     0.25691682
Si     3.82850849     6.16026894    16.55205571     0.57834774     2.00097442    -0.89956343
Si     3.65417504     6.04217005    11.54359105    -0.06641056    -0.27680159    -0.24432045
Si     3.59349072     1.42830445    16.45050281     2.37646365     1.07051039     1.19828367
Si     3.55082296     3.58522075    19.36113882    -0.02038579     1.12276793    -0.44120184
Si     3.63622873     3.78553783    13.93339467     2.33926582     0.22774221     0.90919971
Si     7.57266385     4.82561344    10.04603025    -1.37506759     0.90374810    -1.13722348
Si     7.41624155     9.92218458    15.32423937    -1.40797973    -0.58165741     0.37598643
Si     7.31762997     9.78276286    10.25201359    -0.94344312    -1.15250158     0.36495811
Si     2.53536329     5.03423828    15.26407934    -1.28673136     0.40900546     0.22463928
Si     2.46233855     4.89890904    10.14076022     0.63393182    -1.23898244    -1.26840603
Si     2.34644533     9.82683648    15.47317368     1.26322138    -2.40192032    -1.00028014
Si     2.44932121     9.72997009    10.31454495     0.50240731    -0.78329325     0.02989384
Si     8.70931262     8.44797740    19.31846271    -0.91930205     0.53669035    -0.44425645
Si     8.62668172     8.52320702    14.19191207     0.17275696    -0.34508711    -1.18046474
Si     8.75746911     3.67919637    19.42401156    -1.66733265     1.98569965    -0.93207479
Si     8.67485567     3.73086512    14.23725649     0.22529164    -2.54862761    -0.55584651
Si     3.74688951     8.79756782    19.12148380    -2.15478230     0.31851172     1.35220659
Si     3.67686474     8.71885493    13.96771793    -2.79112291    -0.06359793     0.91272169
Si     3.61025135     1.22272316    11.57176867     0.95066333    -0.07977702     0.19599566
Si     1.16616766     3.59891519    11.36959694    -0.34616983     2.73972631     0.34218454
Si     7.36129956     7.16853616     7.72554248     0.85251302     0.03630058     0.17478304
Si     7.52377257     7.23493378     2.53119071    -0.36290541     0.48643100    -0.96038663
Si     0.28900573     7.25048204     5.33600923    -3.35910034    -1.94642091    -1.37850904
Si    -0.20181450     7.20541483     0.22433348     0.64125800    -0.46709934    -2.04576015
Si     0.19104921     2.17307664     5.29441294    -0.11339304     1.92702103    -0.09947879
Si     0.05960796     2.34389848     0.00659198    -0.07814159    -2.15905738     2.36441660
Si     5.94745336     6.09726957     8.99076253     1.51114845    -1.39177740     0.35772863
Si     6.06300436     6.10893179     3.62689731     1.43329751     0.78067720     2.89453816
Si     6.15074406     1.32762436     8.94649634     0.53762233    -0.20972444    -1.06186914
Si     6.28133773     1.09626597     3.95346969     0.89089984    -1.81021333     2.26275253
Si     1.01835837     5.97334195     8.88570636     0.94255364     0.25812733    -0.23669454
Si     0.95774327     5.94207076     3.76110424     1.37963271     1.37372398     0.48698628
Si     1.36429877     1.22990668     9.02643681    -0.22769043    -0.47004339    -2.15914392
Si     1.30951751     0.95818483     3.97853696     0.76962763    -0.18140931    -0.68146658
Si     5.19485881     2.49435772     4.99581844    -0.67040598     1.38217962    -1.32080102
Si     4.94942536     4.93793579     7.47631271     0.84552002     0.72746801     2.68671799
Si     4.91015874     9.70501287     7.74855384    -0.51068234    -0.35153806    -0.46843475
Si     5.10156921     9.94561681     2.54867054    -1.37831616    -1.31970167    -1.11808777
Si    -0.15675812     4.78375561     7.53371593     0.65822303     0.92962646    -0.92649686
Si    -0.15236580     4.70094643     2.53086800    -0.36826462    -2.41343069     0.44876426
Si     0.17686866     9.59080601     7.73116775    -1.28155792     2.22595382     1.03787422
Si     0.00542493     9.59327777     2.71723178    -0.79412580    -0.72414625    -1.64568353
Si     6.18494585     8.44177376     6.39015250    -1.47673297    -0.46634203     0.61618811
Si     6.10660663     8.44341928     1.33658337     0.85892659    -0.20466876     1.25030851
Si     6.12218634     3.59984257     6.47927850     2.08396530    -0.99602950     0.66659838
Si     5.90772475     3.85877859     1.13097041     0.50524986    -3.14705658     1.92292821
Si     1.40498841     8.50812188     6.47073574     2.11478305     0.02159140     1.31547928
Si     1.13841439     8.40525915     1.16011336     1.01798379     0.11069572     4.00218058
Si     1.31154203     3.66247972     6.45257726    -0.10775675    -0.09932536    -0.04100441
Si     4.78629425     4.86258269     2.59828120    -1.50571823     0.67315543    -1.35522091
Si     4.68243086     7.56165966     0.05578730    -0.46888459    -1.61809707     0.39550364
Si     5.02308734     2.37888115    -0.19022815     0.51752079     0.68999392     0.22332992
Si     4.80279918     7.23723533     5.11027104     0.98142135     0.17445879    -0.13440187
Si     7.53291478     2.33451327     7.55050290    -0.43050450     1.01405644     1.32294893
Si     7.28531367     4.68993954     5.02658493    -1.17592692    -0.06322470    -2.45099378
Si     7.33242033     2.27740850     2.66391124    -0.67969775     3.46578979    -2.98309827
Si     2.54542280     7.09611784     7.67503861    -1.72959685    -1.26100087    -0.11364651
Si     2.42600105     7.13537752     2.59731274    -0.44561648     1.87883830     0.98706460
Si     2.52758678     2.25191033     7.52001241    -0.47616205     0.10339946     0.78144670
Si     2.44156028     2.21908042     2.61570525     0.07319260    -0.17896113    -0.88616759
Si     8.47571345     5.94175664     6.23837767     0.70020759     2.65542746    -0.15689890
Si     8.57108308     5.86345656     1.25960487    -2.20102000    -1.36342788     0.58058012
Si     8.64961709     1.00399225     6.35769735     2.34371376    -0.05758287     2.53493381
Si     8.55519737     1.09617486     1.36345842     2.13554096     0.24564862    -0.32952711
Si     3.61231966     5.87467614     6.28986242    -1.46427906     1.17811334    -1.88949299
Si     3.56592465     6.02097051     1.17224399     2.21082735     0.50000989     0.38254651
Si     3.94501660     1.36020132     6.22347782     1.37734497    -0.94217724     1.49296427
Si     3.85751562     1.28224841     1.16535815    -1.85186625    -0.46253067     0.66378528
Si     7.20153878     4.92709808    -0.06108618     2.41873407    -0.75387996    -1.35711277
Si     3.73907946     3.51021474     3.77024893    -1.40268207    -0.88130105     1.37412119
Si     7.49648154     9.59004913     5.18504909    -2.56002665    -0.32910907    -0.92050093
Si     7.35644014     9.64621441     0.05391573    -0.58674890     0.26146883    -0.99311912
Si     2.36501941     4.77986631     4.95964120     0.22045699    -0.33236572    -1.41583347
Si     2.24959283     4.92847621    -0.00316115    -1.88498640    -0.03185035    -1.95066404
Si     2.67291908     9.70638475     5.30716509     0.61646986    -0.57043195    -1.08018410
Si     2.36305290     9.73375475     0.14348592     2.27244902     1.30881810    -0.99992537
Si     8.59341996     8.55869083     8.97302140    -1.15119767    -0.12431839    -0.69761956
Si     8.60168051     8.32099168     4.00445279     2.69537973    -1.58145320    -0.10085972
Si     8.84405425     3.50884828     8.91766587    -1.56049776    -1.28465772     0.16889997
Si     8.70190648     3.36920999     3.94039323     0.54795623     0.02074127     0.86378825
Si     3.50625238     8.40846753     8.97640803     2.07519221     1.13024926     0.65576893
Si     3.79758025     8.63148536     3.75732931    -0.87220097    -0.62280357    -1.21030462
Si     3.81524105     3.57933124     8.69206600    -0.99725533     0.34347343     1.62797475
Si     7.44530061     7.35254267    12.66285362    -2.10583067     2.15153074     3.67807245
Si     7.42778382     7.30276309    17.98429783    -1.95898747     0.94913411    -0.50424844
128
Lattice="12.031 0.000 0.000 0.000 11.925 0.000 0.000 0.000 25.224" Properties=species:S:1:pos:R:3:forces:R:3 energy=-623.41918945 virial="-307.03820801 -0.20251083 -0.61782575 -0.20251083 -297.30776978 0.97751898 -0.61782575 0.97751898 -368.34350586"
Si     1.55065237     4.32029205     1.65322277    -0.51274341    -0.18415055    -0.15339430
Si     5.90533413     8.98481508    12.68617817     0.23460296    -0.18305966    -0.07771167
Si     6.05862784     3.33900139    18.89993056    -0.14668110    -0.33839297    -0.04081974
Si     5.95911321     3.00865672    12.58130338     0.33397904    -0.00040902    -0.29407704
Si     0.12803023     9.16818738    19.09855582    -0.29734814    -0.55066264    -0.16282046
Si    -0.04422248     8.92507936    12.56043176     0.01518911    -0.21741739     0.08400633
Si     0.03404944     2.93291946    18.97026463    -0.15159518     0.61417055    -0.15994665
Si    -0.03097327     2.70777065    12.73359537     0.36636895     0.81812793    -0.50911367
Si     7.32494797     7.71873762    23.70467238     0.10213111    -0.63755566    -0.07384695
Si     7.52692832     7.62245005    17.29796536     0.14086191    -0.05962910     0.03886331
Si     7.82717641     1.58539115    23.56084805    -1.04301095     0.34748709     0.21241827
Si     7.56985392     1.76328060    17.40912402    -0.15201189    -0.14516228    -0.18483150
Si     1.32572186     7.70449932    23.65225131     0.57494849    -1.05988419     0.25653827
Si     1.36155293     7.60294232    17.37822766     0.62628865    -0.11186142    -0.04185361
Si     1.38332444     4.74962092    20.37076929     0.42273569    -0.60529405     0.45786896
Si     1.59235262     1.47868273    23.50194077    -0.53917396     0.19977626     0.67691016
Si     5.85045101     6.07168161    22.24972052     0.49298587     0.47914350    -0.51455230
Si     6.12410738     5.98804217    15.63076098    -0.23760977     0.32189137     0.16335562
Si     5.96482437    12.39010441    22.04000753     0.35473287    -0.86152673    -0.01126758
Si     6.02697905    12.13931577    15.83161830    -0.20348734    -0.18330970    -0.08965335
Si    -0.00384124     6.02433899    22.18858472    -0.13683039     0.65896022    -0.25889906
Si    -0.03299901     5.90504093    15.72102412     0.03572869     0.34795618     0.03602351
Si    -0.02331220    11.91110911    22.16642181     0.24226263     0.00724516     0.05679431
Si     0.07825076    11.89286569    15.85644852    -0.16379936     0.11144057    -0.10282433
Si     7.50185241    10.72097151    20.61996012    -0.11219890     0.00843946    -0.53589869
Si     7.45623385    10.55004996    14.26024019    -0.04564884    -0.18578547    -0.11100312
Si     7.49541001     4.82964956    20.59376303     0.21394101    -0.51164263    -0.11577545
Si     7.62690680     4.53393896    13.97150660    -0.22673874    -0.08326140     0.43245351
Si     1.72605270    10.45436922    20.80667243    -0.49854276     0.20133850    -0.87153232
Si     1.58268431     1.59989247    17.28795228    -0.36638764    -0.33330667     0.26773641
Si     1.52764445    10.35242110    14.21185841    -0.12980318     0.24303815     0.02569962
Si     6.07423589     9.31307654    18.86533922    -0.16514899    -0.61609519     0.11998912
Si     9.09780022     6.17092575    18.92251178    -0.08433047    -0.05108890     0.18880093
Si     9.15893856     3.32735582    22.08679641    -0.20281544    -0.76547730     0.14732417
Si     9.09139928     3.16825594    15.75663717    -0.08088899    -0.69183218     0.15704003
Si     3.31552965     8.90042418    22.20496532    -1.01399887     0.97011870    -0.24400575
Si     2.99176144     8.91070319    15.83892305    -0.12851334     0.29586893    -0.27478251
Si     2.88510346     3.20546056    21.93690766     0.24797030    -0.31285465     0.10526236
Si     2.98698635     3.14870394    15.65244806     0.15762345    -0.24772358     0.17986530
Si    10.62206366     7.62902864    20.58210496    -0.35820174    -0.09254041    -0.03036445
Si    10.51013340     7.39728029    14.10075647    -0.03157232     0.18848595     0.02928373
Si    10.47121643     1.58554438    20.61116226     0.47793385     0.03775880    -0.34085527
Si    10.46773220     1.36642947    14.39330912     0.19329345     0.38658649    -0.52168417
Si     4.68495473     7.64507734    20.36778740    -0.54766178    -0.14741936     0.42146027
Si     4.47018305     7.37702174    14.19161733     0.16365266     0.29313883    -0.22375910
Si     4.45608207     1.81598352    20.31642757     0.11272456    -0.09502026     0.49145129
Si     4.33581842     4.48415492    23.73041401     0.22131661     0.32412851    -0.58499193
Si     4.54391668     4.67254839    17.24189094    -0.07667501    -0.00772316     0.00368375
Si     9.13125205     5.92845235    12.35688409    -0.23925553    -0.15841240     0.73261929
Si     9.00792188    12.08002269    18.95258380     0.08739242     0.14521757     0.20740300
Si     8.92775459    11.94343680    12.63190491     0.17962769    -0.00171723     0.07063004
Si     3.00146107     6.23463050    18.83867379     0.02353030    -0.24844754     0.04657781
Si     3.05032568     5.90616437    12.36983762    -0.49741721    -0.08343397     0.40563622
Si     2.98754548    11.99605754    18.95656970     0.24689415     0.45062202    -0.09133302
Si     3.01733437    11.87547206    12.67714836     0.00927373     0.02918778    -0.13143323
Si    10.48870879    10.38241054    23.74021699    -0.11651718     0.16495390     0.08001561
Si    10.56436101    10.49913309    17.42286979     0.01522154     0.23234245     0.08464548
Si    10.62651476     4.55033857    23.84811636    -0.30806690    -0.06628998    -0.64705032