128
Lattice="12.612 0.000 0.000 0.000 12.663 0.000 0.000 0.000 24.930" Properties=species:S:1:pos:R:3:forces:R:3 energy=-595.81243896 virial="-357.29409790 0.13598222 0.86098069 0.13598222 -362.96578979 -0.34354079 0.86098069 -0.34354079 -341.94091797"
Si     1.57796404     4.68295437     1.53965874     0.11807209     0.22395188     0.19597346
Si     1.45174684     4.83880691     7.90789906     0.38476276    -0.18699004    -0.22153133
Si     1.48269254    10.98081535     1.58549293     0.13084903     0.19622990    -0.09237717
Si     1.55869662    11.10038391     7.86871320     0.05234266     0.01185075    -0.39281356
Si     7.75820077     4.82158814     1.48259966     0.35627291    -0.28281015     0.14407897
Si     7.88080447     4.61489610     7.71810704    -0.09433748     0.41334102     0.00421568
Si     7.91094655    10.94459466     1.59267571    -0.16097227     0.39410657     0.08673961
Si     7.79608183    10.99958809     7.70960807     0.20399007     0.06755127    -0.17737272
Si    12.58456305    12.71053975     3.10309338    -0.07190102    -0.20784327    -0.10733411
Si    12.58394937    12.77048865     9.33157041     0.18179993    -0.10131654     0.13531800
Si     0.08793143     6.27179546     3.14444548    -0.39417887    -0.17695493    -0.19162877
Si    -0.01769481     6.46006244     9.50569478    -0.15561114    -0.49372971    -0.44208029
Si     6.35224299    -0.02976222     3.15040268    -0.03583516    -0.26329908    -0.04086939
Si     6.25796145    12.61780146     9.23435556    -0.03693746     0.02975293     0.20589875
Si     6.30322975     6.27220684     3.08837441    -0.17643937     0.31720114    -0.00191480
Si     6.32946707     6.32718690     9.24749940    -0.08849220     0.01987270     0.37028876
Si     1.58078192     1.52791961     4.59871708     0.07158150     0.11644097     0.29431152
Si     1.68842763     1.65562946    10.87342591    -0.29919964    -0.04630395     0.09347020
Si     1.53087260     7.90736221     4.66912958     0.12973472    -0.07243109     0.15349391
Si     1.52662168     7.98937639    10.91490209     0.16944906     0.05621234     0.12885986
Si     8.00176245     1.55084221     4.68032084    -0.45645887     0.02743898    -0.27210552
Si     7.87383353     1.56604320    10.95502826    -0.01405689     0.21047479     0.03405815
Si     7.82028070     7.89647374     4.55033784     0.24757518    -0.30477020    -0.06332157
Si     7.98025705     7.96277043    10.83141046    -0.26620850    -0.05279305    -0.00087479
Si    -0.08103812     3.24590613    -0.04391755     0.12471546    -0.12252507    -0.06030244
Si    -0.01411534     3.13763772     6.22428486    -0.21797436     0.07156970     0.12514646
Si    -0.13647093     9.51815730    12.42493984     0.60611135     0.01480769     0.03716867
Si    12.60553023     9.55347659     6.27011195    -0.05200840    -0.32320198    -0.21246076
Si     6.24719059     3.08045962    24.95891682     0.03629228     0.09830681     0.06645066
Si     6.28477154     3.04710873     6.12030301     0.03557484     0.11208773     0.43744713
Si     6.32591559     9.49366722    12.33440541    -0.05001823    -0.01583138     0.07051255
Si     6.23217620     9.37712946     6.08763711     0.00649182     0.36309531     0.32066530
Si     4.68615550     4.68679774     4.71274068     0.06425145    -0.07273748    -0.28953165
Si     4.78589962     4.86801427    11.03923960     0.06471796    -0.20369872    -0.52336413
Si     4.73616660    11.05837953     4.62602575    -0.08931897    -0.17999828     0.10820603
Si     4.76432897    11.08443094    10.79351065    -0.10667971    -0.14103161     0.11186665
Si    10.97410781     4.58706336     4.62566572     0.35557872     0.56466424    -0.14531767
Si    11.04555814     4.86152519    11.14232134     0.09026571     0.14652890    -0.36941615
Si    11.00409367    11.09990146     4.68015669     0.14353226    -0.02812406     0.00675221
Si    10.96203073    11.16469686    10.81876977     0.01771651    -0.22996153     0.13995528
Si     2.95888026     0.00668580     0.07171267     0.63876021    -0.07840188    -0.01209266
Si     3.14705105    12.58493248     6.18850835    -0.13470784     0.18075079     0.08652803
Si     3.21932942     6.26967917     0.07501207     0.15627031     0.12567139    -0.31631675
Si     2.99782656     6.25859548     6.24541989     0.25011516     0.32693082     0.11749282
Si     9.43566179    12.53571397     0.15102246    -0.06876665     0.20952579    -0.55570370
Si     9.46625501    -0.01532449     6.26059304    -0.06308085     0.06285261    -0.06186713
Si     9.31022241     6.42913618    -0.00403057     0.24212252    -0.27778971    -0.10883555
Si     9.44188095     6.24850794     5.99641384    -0.02882088    -0.12811196     0.53496027
Si     4.67828838     1.45460102     1.64164698     0.02375554     0.44159776    -0.16373082
Si     4.62502403     1.54030984     7.73064161     0.45912796     0.01407559    -0.09015537
Si     4.78304799     7.90166047     1.58470510    -0.34615776    -0.05469908     0.10217232
Si     4.61577744     7.87400600     7.75998506     0.23136173    -0.03129609    -0.20840064
Si    11.00472038     1.69078916     1.46525931     0.03750549    -0.32308128     0.38954517
Si    11.03028955     1.69400286     7.86834377     0.00479401    -0.29544702    -0.13597319
Si    11.11242512     7.76830502     1.57139973    -0.21838307     0.35289541    -0.14598203
Si    11.05297772     7.78085794     7.64410935    -0.04329189     0.61586016     0.32917321
Si     3.19881202     3.12356123     3.13274252    -0.28301042    -0.18910202    -0.05812226
Si     3.21379106     3.27922135     9.36472213    -0.31440428    -0.19985414     0.09689333
Si     3.11913060     9.45087059     3.14181241     0.10806778     0.05168518    -0.12636000
Si     3.17274359     9.51691849     9.32253451    -0.25794667     0.00871902     0.10030711
Si     9.48049442     3.22866436     2.99448405    -0.19279760    -0.30474120     0.21855284
Si     9.44102208     3.26566098     9.54531051     0.09941983    -0.35523564    -0.43741259
Si     9.50830797     9.41923412     3.05588915    -0.21027824    -0.00558421     0.19559759
Si     9.47337323     9.45730375     9.14944716    -0.13681455     0.08763741     0.40498447
Si     1.64844993     4.72762012    14.14845408    -0.06938036     0.10852370    -0.40343699
Si     1.59425600     4.70180465    20.38217406    -0.01319837     0.05852830    -0.65296400
Si     1.57639166    10.91567414    13.96696616    -0.08605558     0.47955251     0.03641535
Si     1.57999718    11.07737897    20.35430413     0.21995735     0.01951636    -0.18683851
Si     7.98969060     4.80170762    14.18593883    -0.16167760     0.07955140    -0.42500967
Si     7.71649683     4.68487828    20.27231668     0.57199740     0.35304987     0.11147726
Si     7.79289444    10.99556463    14.02017979     0.25980365     0.54630208     0.05200199
Si     7.86923325    11.02069001    20.21796675     0.02033029     0.37067854     0.17993560
Si    12.60440579    12.55484829    15.57799332     0.14518730     0.43447328     0.04948115
Si    12.51526521    12.61217494    21.90801675     0.18513522     0.12973306    -0.18738014
Si     0.10075002     6.34440957    15.60959337     0.04400654     0.09032512     0.23980027
Si     0.09574785     6.43932711    21.80776072    -0.11158736    -0.22504783    -0.06931109
Si     6.25665069     0.02339877    15.56316350     0.02961744    -0.24954748    -0.14839199
Si     6.41426741    12.70540615    21.82490737    -0.33248997    -0.24647570     0.18063748
Si     6.30936945     6.40196334    15.50764062     0.16213945    -0.22993994     0.14772937
Si     6.30642563     6.36109080    21.83108418    -0.31411257    -0.20748907    -0.01789125
Si     1.59651617     1.50880077    17.15538343    -0.08584886    -0.03124505    -0.15565978
Si     1.52290683     1.54457948    23.35527075    -0.15549235     0.10587928     0.18474856
Si     1.76531750     7.90152299    17.11903059    -0.41227061    -0.16750917     0.06817096
Si     1.87347789     7.98055148    23.32971508    -0.70012015    -0.16619995     0.23006925
Si     7.78865026     1.59086058    17.08552967     0.31418461     0.38442385     0.34047747
Si     7.87020666     1.51075317    23.50557034     0.16882169     0.14127770    -0.22906399
Si     7.97736556     7.89065857    17.06821022    -0.22548905     0.28843105     0.32533550
Si     7.75970230     7.96793276    23.35020067     0.23680773     0.09025414     0.06872069
Si     0.11113547     3.27625557    12.52547271    -0.16899393    -0.21819675     0.14309759
Si     0.02700426     3.16248215    18.66630408     0.01743675     0.10091157     0.58264554
Si     0.04200480     9.31369511    24.87546181    -0.03451151     0.37977642     0.27101770
Si    12.76615272     9.43596669    18.73258115    -0.21333560     0.23709401    -0.01011774
Si     6.40728209     3.22805325    12.55289605    -0.29306591    -0.13913564    -0.08133803
Si     6.20278333     3.21523571    18.65553299     0.10679743    -0.44995540     0.02946922
Si     6.19826403     9.59857691    25.00586577     0.51099658    -0.27695429    -0.10779376
Si     6.30220335     9.40980962    18.68137528     0.21234128     0.23355588    -0.04205452
Si     4.69155321     4.73921748    17.10763107     0.00746982    -0.14069659     0.01448823
Si     4.75238428     4.66287972    23.41571608    -0.09503740     0.12315060    -0.07408731
Si     4.80686760    11.09252635    17.13632344    -0.33064115    -0.13465467    -0.07210100
Si     4.81487008    11.31593910    23.53334919    -0.34145394    -0.50748712    -0.44925180
Si    11.14205225     4.81546365    17.26320348    -0.13591988    -0.16894804    -0.42217523
Si    10.93221418     4.92524605    23.33330083     0.24742743    -0.31728098     0.24866793
Si    11.03609392    11.25718249    17.21635437    -0.01336357    -0.31487781    -0.12019049
Si    10.92286416    10.93727571    23.42776743     0.27245331     0.25485113    -0.08109602
Si     3.16621697    -0.08019359    12.38466305     0.08019809     0.18001422    -0.05046907
Si     3.12978927    12.58978712    18.71250893     0.20980161     0.08120098     0.02381842
Si     3.19381385     6.41796857    12.47659775    -0.17269100    -0.17951751    -0.04974381
Si     3.14307360     6.20091387    18.70801751     0.18782048     0.39239782     0.05339458
Si     9.35490506    12.64119521    12.50422557     0.22993210     0.04691484    -0.18698402
Si     9.41388878     0.22297550    18.75787984    -0.00410440    -0.57969582    -0.21837249
Si     9.49043296     6.49625609    12.59932603     0.18854123    -0.29837161    -0.06275385
Si     9.50483933     6.35667059    18.71119060     0.01685285    -0.10266452    -0.14688057
Si     4.67577483     1.53252708    13.92637059     0.27020457     0.03778547     0.39460424
Si     4.75937277     1.45238305    20.22200931    -0.15582705     0.52303886     0.04747847
Si     4.75117902     7.93841522    13.82976337     0.19385384     0.19742864     0.55699646
Si     4.74059928     7.90282083    20.27395039     0.18920097     0.05342373    -0.04505002
Si    11.07373405     1.58268028    14.05554416    -0.03145951    -0.01095472     0.09511341
Si    11.00112736     1.71833609    20.32957863     0.06839994    -0.26285011    -0.12415595
Si    11.11346495     8.04306830    14.08961812    -0.31888479    -0.14242281    -0.05408927
Si    11.10311409     7.91820501    20.17137933     0.00270652     0.04347315     0.31694341
Si     3.14987077     3.02125166    15.55859690     0.00195781     0.38177574     0.13359779
Si     3.17047833     3.08507723    21.79445892    -0.00789628    -0.04123070     0.23907998
Si     3.25757952     9.49850121    15.49837436    -0.07737522    -0.21299708     0.00025285
Si     3.36583192     9.71423041    21.84006316    -0.39026347    -0.48020512     0.12830430
Si     9.56453366     3.18478320    15.68946676    -0.25998262     0.06104912    -0.11339689
Si     9.47183709     3.19906571    21.91640682    -0.36106604     0.03679575    -0.21373248
Si     9.50595481     9.68117214    15.68125612    -0.13744342    -0.54733330    -0.34720963
Si     9.39415174     9.49856837    21.74105962     0.06076867    -0.17924368     0.23350458
128
Lattice="9.859 0.000 0.000 0.000 9.722 0.000 0.000 0.000 20.424" Properties=species:S:1:pos:R:3:forces:R:3 energy=-603.56872559 virial="514.31915283 6.36842728 -3.52280188 6.36842728 505.21340942 5.84600163 -3.52280188 5.84600163 516.74426270"
Si     1.37212767     3.66895934     1.07671093     0.64083654    -0.93644047     0.65886849
Si     1.19820131     3.54693032     6.44837164     0.90864682     1.75835991     1.28442574
Si     1.17471169     8.36793086     1.22851262    -0.25669160     0.83913863     0.40109959
Si     1.03643343     8.52685148     6.25775253    -1.16811538     0.68404841     0.90889442
Si     6.12576726     3.55235365     1.12093159     0.57102287     1.26421022     1.54150772
Si     6.10769965     3.62553889     6.31893997    -1.50638831    -1.93161380     1.77189350
Si     6.24287801     8.51108613     1.47008230     2.46480703    -1.40016365    -1.92344165
Si     6.11041259     8.44533843     6.08840997    -0.14059505    -0.19941904     1.10210419
Si     9.76648759     9.63085004     2.47799289     2.34150553     0.62984264     0.59380007
Si     9.96640820     9.88975191     7.81418585    -0.11721203    -1.11223340    -1.75426292
Si    -0.05023122     4.64314379     2.40086231     1.61628723     0.51023650    -0.67607677
Si    -0.24164416     4.82574351     7.45496170     1.06441104     0.41927594     0.74501264
Si     4.84664373    -0.24044323     2.56110539    -2.31065178    -0.13704762     0.53234923
Si     4.83751769     9.66902682     7.36683424     1.04486334     1.38082695     1.97929549
Si     4.72606180     4.74238017     2.41630459     0.75435746    -1.11949074     0.08289658
Si     5.04197068     4.95819683     7.54847965    -0.54086584    -0.06181391    -0.94251025
Si     0.97575167     1.20589439     3.98921791    -1.06387711    -0.77920032    -1.78960288
Si     1.15013924     1.43408562     9.12526860     2.96283770     0.39403468    -2.04259276
Si     1.13293350     5.92563505     3.70684275     0.30985343    -1.24212170    -1.80476892
Si     1.02775527     6.29298693     8.83107926     0.79079789    -1.60671306     0.45690277
Si     5.97971922     1.01908067     3.74560456     2.09295225     1.00791800    -0.11774695
Si     6.09962176     1.51345106     9.21974906    -0.91228354    -1.84702122    -1.55806947
Si     6.14186334     5.75131725     3.74022379    -0.37093711     1.19532573     0.48082781
Si     6.25313232     6.00622681     8.81044328     2.26276374     0.29287338     1.73420894
Si    -0.18047345     2.66380951    -0.09208470    -0.64155060    -0.88519901     2.28123331
Si    -0.08564913     2.50543354     5.26589354    -2.53826332    -0.76225376    -0.28015733
Si    -0.13502882     7.70200243    10.18201757    -0.14039510    -1.52501559     0.78213888
Si     9.85668811     7.12507082     4.95602093     0.37819326     0.09381181     1.79502690
Si     4.78644680     2.28675024    20.59728057     0.43285644     1.35819793    -2.72516203
Si     4.98670465     2.31955428     5.08608143     0.18096209     0.97420812    -0.82133919
Si     5.04467181     7.34115278     9.94719807     1.47388744     0.42529884     2.02479315
Si     4.80410138     7.16149203     5.04273122     1.12859845    -0.86369181    -2.55094361
Si     3.60679330     3.41376382     3.78479370    -1.30510628     0.98337138     0.71796548
Si     3.97864863     3.60496623     8.72906867     0.07152838     0.04827045     1.78821754
Si     3.52958429     8.42726793     3.83396750     1.12739289    -0.17257893     0.75086641
Si     3.68758905     8.40228966     8.76357850    -0.34404534     0.79136318    -1.12358975
Si     8.68244728     3.49442164     3.70170761    -2.33339739    -0.87936592     1.12705302
Si     8.79165062     4.02161403     9.28251407    -1.06221867    -0.80384588    -0.79331154
Si     8.70009351     8.44086276     3.83398997    -2.51486778     0.39053673     0.25991458
Si     8.46752523     8.57115108     8.66200527     1.35096359     1.17610335     0.58929491
Si     2.42119103     0.02597125     0.16165187    -1.07855952    -0.15844305    -1.41435826
Si     2.34292219     9.69448470     5.01458427     0.58738911     0.25203359     1.11685753
Si     2.71405440     4.79750315    -0.18907241     0.35216349    -0.92008442     0.26579881
Si     2.26536181     4.91592823     5.18718795     0.35793656    -2.42940521    -1.95472848
Si     7.34385727     9.58124945    -0.10659172    -0.78891957    -1.25480247     0.82815564
Si     7.39922281     0.03054339     5.08116018    -0.03767829    -0.64599669    -3.01951981
Si     7.23743849     5.00574026    -0.00263387    -1.35332763    -0.51284695    -0.31747758
Si     7.38912645     4.63901264     5.15671687     2.62335539     0.71857589    -3.14845657
Si     3.71512851     1.09606668     1.38580444    -0.76891333    -0.74377304     2.59485292
Si     3.56387729     1.31348263     6.22565534    -1.11498618    -0.98359549     0.58596528
Si     3.40013746     6.03014197     1.34451450     1.42661715    -0.40666717    -0.83416224
Si     3.67259948     5.94277889     6.29781616    -0.00995081     0.26129094     1.21709073
Si     8.59972784     1.02398200     1.14994370     0.03097738     2.65187883    -1.19568205
Si     8.52889989     1.10819431     6.41287507     1.09361982     1.90252936     2.75210571
Si     8.67028718     5.93611611     1.17681512     1.12686110     1.25733769     0.28905597
Si     8.45545496     6.13567497     6.23115851     0.46842057    -0.09006394    -0.66764814
Si     2.25284563     2.15390418     2.52793415    -0.54672956     1.40714622    -0.37668911
Si     2.53651665     2.51103674     7.68366451    -1.08602881    -1.86334300     1.45479715
Si     2.35801912     7.26344617     2.57603103    -1.45116770     0.70525801     1.29942644
Si     2.44907635     7.33841412     7.37677670    -0.98640776    -0.65388846     0.57806772
Si     7.30428292     2.28754607     2.44385008     0.14847939    -0.51622540     0.70004499
Si     7.32538644     2.54345675     7.73080467     2.30549002     0.48808879     0.85839957
Si     7.48637605     7.08807142     2.55754924    -0.41179153     0.06234291     0.98514736
Si     7.32821761     7.33962823     7.49734446    -2.36452293    -0.52480590    -0.40135092
Si     1.33249078     3.71316649    11.58283878    -0.11266783    -0.44488025    -1.70807064
Si     1.49175685     3.63643344    16.54150878     0.45488530    -0.40061104     2.16356802
Si     1.37424349     8.66353437    11.42278654     2.47647953    -1.17608809    -2.24957991
Si     1.34099961     8.58013087    16.78269904     0.82927024    -0.04559181     0.59943277
Si     6.40618175     3.70306944    11.45503204    -0.62876242    -0.44813907     1.12709379
Si     6.12678912     3.68346867    16.67577804     0.32046014     2.52265882    -2.79010010
Si     6.23175184     8.68544006    11.39865003    -1.24093580    -0.46121782    -0.14121635
Si     6.08576206     8.67269189    16.68780281     1.11711264    -1.54280806     1.85660613
Si    10.05246580     9.75060085    12.67882126    -3.34390640    -0.69615066     1.93447804
Si     9.74547698     9.67899518    17.86457378     0.16854559     1.03287196     0.39026034
Si     0.20778615     4.93451301    12.92018269    -0.78613842     0.00262259    -0.21413468
Si     0.27478753     4.92895324    17.85919273    -0.19075863    -0.65388072    -0.12279168
Si     4.93409384     0.08277783    12.85698177     0.75644511    -1.16265750     1.09836233
Si     4.88119096     9.88323804    17.89417974    -0.65888822     0.67194957     1.32432914
Si     5.14400577     4.94202470    12.80618912    -0.83770126    -4.28457117     0.90311503
Si     4.72602288     4.75602620    17.99500006     1.84352183     1.91261053    -1.14103317
Si     1.28128865     1.05996587    14.10963692    -0.82099670     2.34914088     2.66712093
Si     0.96939717     1.15812009    19.37893626     0.21177801    -1.33382511    -0.52219099
Si     1.47888258     6.18505341    14.05350646     0.65584469    -1.14135289    -0.12632343
Si     1.41378380     6.09808502    19.28326952    -0.91160369     0.20822984    -0.65792352
Si     6.24619546     1.39240883    14.07800080    -0.13245741    -1.74654925    -0.60455269
Si     6.15087634     1.24738078    19.29870951    -1.53207493    -0.43177134     0.34169239
Si     6.15921669     6.17658423    14.13178047     1.34718347    -1.02632570    -0.37075222
Si     6.03820229     6.16036915    19.09704846    -1.92647219     0.42668495     0.23415658
Si    -0.09911429     2.41357996    10.38488344     0.12519741     3.50732660     1.07491124
Si     0.05632484     2.37508289    15.69701707     0.07049412    -0.82218933    -3.10103416
Si     0.00053816     7.22995377    20.34347464     0.26657853    -2.01363945     1.59130824
Si    10.26992393     7.14912520    15.51494746    -3.17559266     1.79271984     0.08438560
Si     4.83157235     2.68347287    10.50547506    -0.87449741     1.45497346    -0.64878827
Si     4.94184999     2.38485573    15.37173168    -0.10351889     2.11582923    -0.19946802
Si     4.86557970     7.25824346    20.71098405     0.25664064     0.30195379    -1.06189287
Si     5.11500641     7.42548238    15.32160358    -2.07487822     1.38006949     0.83986098
Si     3.57349827     3.49208572    14.02925083     1.47533679     1.59666049    -0.24480033
Si     3.68869582     3.36895635    19.07106043     0.48244485    -2.30127096     1.34839034
Si     3.63664540     8.34888027    14.00711285     0.74312985    -0.23322311    -1.21603942
Si     3.72302918     8.62543965    19.26149144     0.84334052    -0.86289638     0.41025543
Si     8.85308528     3.57799087    14.07509106     0.62720060    -0.93957353     1.07089531
Si     8.56547431     3.95567307    19.11479035    -0.28418630     0.71717429    -2.26242304
Si     8.46254063     8.64286421    14.02909910     4.41598225    -1.05964112    -0.50598800
Si     8.68337335     8.39351884    19.19240171    -1.28227186     1.11952496    -1.62665033
Si     2.60054337     0.08991808     9.93591829    -0.45868492    -0.23138565     0.82537377
Si     2.55579290     9.60512408    15.34756824     0.31361490     0.05002302     0.41806495
Si     2.74623243     4.77909350    10.21434147    -0.40647089     1.72142625    -0.69914985
Si     2.62804122     4.96231306    15.39598872     0.07137500    -0.49231413    -2.16540766
Si     7.56914885     9.83409614    10.12718947    -1.46880651    -0.22874203    -1.34265685
Si     7.30687548     0.00900670    15.37335191    -0.00575335     1.44371057     0.01545588
Si     7.43936765     5.22156063    10.50808426     0.81210983     2.21790838    -0.94551921
Si     7.60483209     5.00474098    15.15301526    -0.66006708    -1.71346855     1.70355010
Si     3.78432478     1.13445537    11.41798141    -0.94709361    -1.22147274    -0.15538730
Si     3.62377183     1.30372946    16.57585236    -0.92519736    -0.67429793     0.11549573
Si     4.08724723     6.20129013    11.54299523    -1.11098945     0.07615758    -2.46414089
Si     3.88249628     6.13944307    16.54800730     1.07348561     1.30810714     1.15351367
Si     8.64255145     1.16261266    11.55243345    -0.74791533    -0.73140526     2.39094520
Si     8.45696614     1.24312198    16.72074303    -1.76586390     0.68693519     1.33277023
Si     8.80638634     6.34138285    11.84480445     2.70577192    -0.43207052    -2.38990402
Si     8.73216391     6.09553996    16.65811162    -0.05102978    -0.12681748    -0.17492782
Si     2.43517341     2.22148099    12.70760450    -0.21563104    -0.14967692    -0.31100959
Si     2.32820845     2.18783664    18.02549470    -1.98033881    -0.29707453    -0.68359381
Si     2.49069496     7.17133233    12.54998697     0.07581379     1.34726632    -1.33360076
Si     2.61786761     7.24624440    17.96283965     0.61169255     0.49882454    -0.78527832
Si     7.50335857     2.47381955    12.79867760     0.82607073     0.66514611    -0.16838306
Si     7.18126483     2.56346415    18.07427666     3.12819314    -0.13333538    -0.24104933
Si     7.30372011     7.35265805    12.78449521    -2.13289881     1.28244245    -0.06131327
Si     7.39599945     7.27535053    17.88198154    -0.53613520     0.89540094    -1.26102650
128
Lattice="12.147 0.000 0.000 0.000 11.909 0.000 0.000 0.000 25.269" Properties=species:S:1:pos:R:3:forces:R:3 energy=-618.87603760 virial="-319.13360596 0.15822101 1.02164567 0.15822101 -295.34759521 -1.55118847 1.02164567 -1.55118847 -368.87179565"
Si     1.66230178     4.37071787     1.36407709    -0.76238835    -0.08059880     0.32891589
Si     1.48105519     4.45038618     7.99975178    -0.38278490    -0.05674065    -0.37870947
Si     1.44440216    10.35746496     1.55347795    -0.01093917    -0.04973359     0.25321168
Si     1.29180781    10.46575871     7.77111310     0.61387300    -0.28196037     0.21042347
Si     7.55303572     4.37467919     1.53092587    -0.45283312    -0.08372410     0.01961087
Si     7.58874026     4.36208169     7.91487650     0.25830606     0.38418686    -0.21262205
Si     7.74200370    10.25241134     1.71241313    -0.81495154    -0.12972546    -0.20190844
Si     7.46010838    10.40791517     7.61216803     0.18870395    -0.08371239     0.32448304
Si    12.07617991    11.81990868     3.09354704    -0.40362802    -0.06588479    -0.00112395
Si    12.22654641    12.03290188     9.51411999    -0.60192513     0.00413521    -0.25236917
Si     0.00297827     5.67571172     2.89633553    -0.10539708     0.46328834     0.38953289
Si    -0.16745491     6.02164078     9.33739467     0.37024021     0.25076315     0.61011744
Si     5.92527060    -0.31608293     3.21462755     0.28759927     0.62372458     0.08077982
Si     6.05431499    12.02166783     9.30164442    -0.39605302    -0.32207477    -0.11604241
Si     5.86822961     5.70997112     3.07367746     0.24393305     0.28154784     0.24656039
Si     6.18209697     6.01750024     9.37231807    -0.05916127    -0.39921135     0.10114282
Si     1.15566496     1.42312576     4.81634555     0.66804600     0.02107124    -0.16330647
Si     1.52588817     1.71818206    11.17178291     0.10744694    -0.58976972    -0.32662040
Si     1.39086687     7.15632396     4.54040951     0.06475778     0.40866229     0.46750289
Si     1.38636156     7.53727340    10.96112387     0.25824216     0.16811341    -0.26641965
Si     7.45536394     1.31098533     4.60544418     0.14807104     0.07221218     0.19479944
Si     7.44936693     1.73765316    11.13296534     0.56575298    -0.13584454    -0.07988150
Si     7.53783814     7.11209392     4.65743984    -0.01361824     0.27845407    -0.02569967
Si     7.77909167     7.47155771    11.01075908    -0.40234607     0.59124446    -0.01447354
Si    -0.21439542     3.19042294    -0.00916658     0.40049261    -0.73054206    -0.25843892
Si    -0.25231497     2.97261097     6.51003629     0.51554590    -0.29951662    -0.40493637
Si    -0.00439747     9.26434357    12.57659175     0.33914417    -0.44561458    -0.09001428
Si    12.11293819     8.75603326     6.19138112    -0.44301423     0.44427633    -0.02908308
Si     5.96944981     2.84127430    25.40894103     0.12509716    -0.15858029    -0.14491971
Si     6.01677689     2.88504766     6.21077161    -0.36431941    -0.13415718     0.13427919
Si     6.32897684     9.07848234    12.44276817    -0.51913905    -0.24789241     0.21805130
Si     6.03322126     8.68134574     6.10964178    -0.29319257     0.44493023     0.56231719
Si     4.30452498     4.25278680     4.70052537     0.41530639     0.06354303    -0.15207320
Si     4.81296736     4.46503277    10.90419056    -0.84617352     0.35017985     0.47207665
Si     4.36137531    10.24439430     4.82916461     0.06372623     0.01718749    -0.49757671
Si     4.56393194    10.39049562    10.74889962     0.13707152     0.45123056     0.30242813
Si    10.54724096     4.22908807     4.59721672     0.02223439     0.13015795     0.20367223
Si    10.64832577     4.82178533    11.31762489    -0.02189128    -0.48810488    -0.28496817
Si    10.61197601    10.29603112     4.68313598    -0.01249176    -0.08165884    -0.05914862
Si    10.55813918    10.58170349    10.81348013     0.10193589    -0.05962802     0.71949542
Si     2.95657584    -0.03427515     0.08446586    -0.14404787    -0.19162229     0.20545794
Si     2.81733327    11.91728096     6.30343575     0.05159415    -0.16498995    -0.04938802
Si     3.24278583     5.79609827    -0.19863081    -0.75946772     0.07216026     0.55292618
Si     2.92165457     5.77570035     6.22320331    -0.01362624     0.17195177     0.14555004
Si     9.03914612    11.72729229    -0.08175916     0.24601632     0.38119829     0.28461373
Si     9.08837298    -0.00965300     6.15121332    -0.30560386    -0.42469126     0.30195749
Si     8.90466689     6.08332648    -0.07510398     0.48454949    -0.19782490     0.07507714
Si     9.13714432     5.72182175     6.21229826    -0.54129285     0.34684426     0.10741325
Si     4.44139710     1.33606521     1.78730147    -0.12704152    -0.09892766    -0.52452606
Si     4.40448918     1.49689113     7.78992576     0.24679239    -0.04683649     0.25328970
Si     4.38108380     7.36947668     1.61685803     0.56823975    -0.13304015    -0.09708707
Si     4.47544824     7.35375451     7.76796318     0.06681006    -0.06430249    -0.17139435
Si    10.54851075     1.37812970     1.41512899    -0.11458278     0.14811601     0.44612095
Si    10.51638986     1.48898820     8.12034809     0.30170777     0.38387674    -0.38208508
Si    10.62366194     7.32679455     1.51724378    -0.09692864    -0.05818355     0.00960647
Si    10.46470675     7.46314817     7.71882750     0.26213211    -0.44566765     0.13709912
Si     2.73627189     2.78935459     3.17042858     0.63766700     0.22618644     0.06907406
Si     3.07502965     2.99020629     9.56216506     0.02631833     0.35024971    -0.42250818