48
Lattice="11.24410 0.00000 0.00000 2.83332 4.79716 0.00000 0.12580 0.23115 14.80195" Properties=species:S:1:pos:R:3:force:R:3 pbc="T T T" energy=-182458.747 virial="-151.6320 -15.6470 0.5342 -15.6470 -175.1860 -10.0537 0.5342 -10.0537 -127.0020"
Ag     4.06313970     2.80329692     7.59467956    -1.11684583    -1.02834103     0.25389547
Ag    11.53750274     2.30218136    11.81903611    -1.22859990     0.74736832     0.42874323
Ag     9.83122485     0.95558287     2.21954320     0.57099449     0.88054555    -0.45827252
Ag     5.87126420     2.34910117    11.60846780    -0.63683566     0.06738265    -0.49662559
Ag    11.65701774     3.61738737     9.13661679     1.40980936     0.27609231     0.03694731
Ag     8.45249457     0.14968966     0.00492015    -0.21683477     0.61574594     1.05399406
Ag     8.81024371     3.41468770     2.33358424     1.15039118    -3.72321521    -2.43044674
Ag     8.85835137     2.59934714    12.25845839     0.44997954     1.30438513    -0.54260774
Ag    12.90141061     4.80887124    11.63124638    -0.39933413     0.45822019    -0.08883359
Ag    12.85544408     2.87478738     6.58138665    -1.42669313    -1.94717834     2.08994238
Ag     8.32669626     0.18045581     6.83891319    -0.00620156    -0.61225358     1.66797358
Ag     4.32846786     3.90814643     5.27602879     2.69493797    -0.52004775    -1.45971746
Ag     7.12153679     3.80607805     4.98691427    -0.92107593     0.97676861    -1.10422390
Ag     3.15869120     0.52954031     7.17205058    -2.43708493    -0.68613480    -2.62245813
Ag     4.35766781     0.74110328     9.47679601     1.57662229     2.44085787     4.37952683
Ag     4.08477243     4.25449978    12.36133691     1.23801450     0.36219571     1.16815617
Ag     1.58326305     1.04215852     9.87893603    -0.15907781    -1.17293040    -1.97175738
Ag     9.92777846     2.85887975    14.79603664    -0.31294125    -1.68493192    -0.49150160
Au    11.40407295     3.52011886     2.43208373    -0.74685566    -1.60124639    -0.25070336
Au     8.63271910     4.95999415    14.72181612    -0.52353195     0.79169062     1.73398840
Au     7.35395499     4.74914465    12.44147965     0.14124579    -0.52883705    -0.54792850
Au     6.81575458     2.28674530     6.89986898     1.46847547     1.65894427     1.17129597
Au     3.05969352     1.45148184     4.49464575    -0.45823275    -1.71317032     0.25473121
Au     0.16610317     0.20967487     7.00016785    -0.83248417     2.90324634     3.01706207
Au     9.72394050     4.02859890     4.43993826     2.64303115    -1.02246828     2.66311416
Au     4.91999113     3.97477324     0.25930771    -0.77851953     0.06130565     2.49695876
Au     6.67141135     2.56754047    14.20907001     1.55106600     0.04891357    -1.37224321
Au     5.92341944     3.50807279     8.95547743     0.32241433    -0.65502413     2.87931987
Au     3.03121572     3.28932739    10.13479912     1.35601088     0.02151842    -2.27686579
Au     7.74856883     0.36017988    12.46307349    -3.06717491    -2.14800410    -0.55825651
Au    13.16995963     3.77699357     4.36805662     0.43910899     2.64924753    -3.05431059
Au     2.81079611     1.82513544    12.23723773     0.42923959    -0.64167008    -0.43869864
Au    10.18875436     1.32113211     9.17362410     0.64259177    -3.49665074     0.42427821
Au    11.15477398     0.37043184    14.50344869    -0.45265014    -0.10014665     0.67633144
Au     5.79156691     1.34177892     4.84274075    -0.55638570     0.37001492     0.47388249
Au     9.09593748     3.40300144     9.74628536    -0.87744051     2.19349396     0.92849394
Au     4.86775076     2.54562129     2.93750372     0.39153976     2.60178738    -2.82963458
Au     1.16745797     0.44015905     2.52017341     1.38642065    -0.87902130    -0.56194220
Au     2.51953457     2.83353245     1.78908633     0.35581163     0.99797256    -0.19175302
Au     3.54874331     1.64718877    14.71540190     2.62395315    -0.74556481    -1.86750024
Au    10.01950138     2.51441750     6.88157654     0.63239588     0.48293795     0.06787459
Au    11.53634565     1.63143582     4.54758919    -2.82667878     1.45291248     1.99493419
Au     8.49330285     4.87587554     7.37914923     1.27664788    -2.80065393     1.15870151
Au     7.07316952     1.16126768     2.24907747    -0.99203191     1.10708845    -0.63354721
Au     8.77525485     1.48502498     4.79208583     0.55158296    -0.34752882    -2.01565490
Au    12.45261341     2.68150621    14.35509189     0.06227468     0.80474785    -1.23476340
Au     7.27260731     1.25503455     9.68703137    -0.61782619     0.01053048    -0.56014318
Au     6.88213855     4.69143441     2.37066124    -3.77743343     1.76848844    -0.96166062
48
Lattice="11.24410 0.00000 0.00000 2.83332 4.79716 0.00000 0.12580 0.23115 14.80195" Properties=species:S:1:pos:R:3:force:R:3 pbc="T T T" energy=-182458.9623 virial="-150.8300 -15.3714 0.9508 -15.3714 -174.6350 -9.8082 0.9508 -9.8082 -126.0110"
Ag     4.05821741     2.80053761     7.60361264    -1.19232637    -0.96145728     0.08739514
Ag    11.53330890     2.31497949    11.81104265    -1.14206815     0.64201128     0.41754079
Ag     9.81899075     0.94892897     2.22089240     0.67503669     0.97142044    -0.49900233
Ag     5.88095412     2.34016231    11.61823924    -0.72104760     0.12020196    -0.53324593
Ag    11.64691042     3.62149059     9.12209764     1.42490257     0.18954728     0.08879260
Ag     8.44391487     0.14229134     0.00001279    -0.16157280     0.62434155     1.17210237
Ag     8.82035981     3.40851254     2.32214737     1.12734113    -3.55791386    -2.19599031
Ag     8.86526890     2.60307965    12.24666151     0.40941033     1.31283583    -0.46684310
Ag    12.89656486     4.80034121    11.63304905    -0.22125857     0.47592132    -0.11441067
Ag    12.84173314     2.86261559     6.59377703    -1.17370181    -1.69410650     1.80714918
Ag     8.33993853     0.18127540     6.85172117    -0.10368307    -0.48783366     1.59316982
Ag     4.33587605     3.91845438     5.27966236     2.65903382    -0.68743107    -1.44702321
Ag     7.12377149     3.80918476     4.99859199    -0.87049371     1.05634716    -1.20242120
Ag     3.15227538     0.52324328     7.18013398    -2.43833283    -0.59710974    -2.67347448
Ag     4.36992814     0.74368233     9.47075401     1.48626085     2.37807763     4.52030159
Ag     4.07335865     4.24108669    12.36149167     1.29557309     0.44408021     1.18104835
Ag     1.58116259     1.05389410     9.87199857    -0.16895455    -1.19138197    -1.94608104
Ag     9.92029179     2.84935417    14.79124524    -0.32106362    -1.66036950    -0.52555240
Au    11.40806350     3.51847215     2.44050285    -0.77140023    -1.73398052    -0.29676769
Au     8.62704558     4.95851425    14.72681609    -0.46214538     0.74630089     1.75391490
Au     7.34982956     4.74597367    12.44625234     0.19418919    -0.58493319    -0.53456509
Au     6.82574176     2.28906280     6.89701485     1.34607151     1.45129327     1.30479579
Au     3.04928138     1.44773380     4.50196498    -0.17121225    -1.66860158     0.15868503
Au     0.16336892     0.21491238     6.99275461    -0.90880753     2.68326912     3.07963191
Au     9.72862759     4.03828327     4.44395915     2.56702848    -1.35491422     2.46577323
Au     4.92817266     3.96753245     0.24886395    -0.81438953     0.13558296     2.51064450
Au     6.67912063     2.55792026    14.20163831     1.59835222     0.03582529    -1.34022628
Au     5.91474974     3.51281088     8.96159295     0.40030932    -0.68713428     2.89050264
Au     3.03423719     3.28874039    10.13586135     1.33826076     0.00231364    -2.25448169
Au     7.75801216     0.36535496    12.45888706    -3.21685669    -2.13632605    -0.51846711
Au    13.17772053     3.77158633     4.35946153     0.49148794     2.58440714    -2.67091158
Au     2.81313991     1.81634917    12.24086290     0.27339822    -0.62275600    -0.48417361
Au    10.18117229     1.31004238     9.18282800     0.62387901    -3.34099244     0.46151796
Au    11.15633130     0.36624522    14.50928123    -0.36239365    -0.09135263     0.74771645
Au     5.79657771     1.34067628     4.83342546    -0.68729862     0.63648989     0.55031730
Au     9.09426996     3.40487576     9.75216904    -0.82332899     2.05907781     0.79552138
Au     4.87230328     2.55447329     2.93190074     0.30696438     2.48315168    -2.67156282
Au     1.16078348     0.42960527     2.52791338     1.40075892    -0.78537198    -0.63628929
Au     2.52586116     2.84033286     1.78990014     0.25533842     0.89513500    -0.29000333
Au     3.55629729     1.64466603    14.72107787     2.39538601    -0.63983406    -1.84942768
Au    10.02803194     2.52131585     6.89042531     0.48312620     0.45677980     0.03096987
Au    11.54066324     1.63189749     4.55763614    -2.90660157     1.46765239     1.91130060
Au     8.48687277     4.87795323     7.38313860     1.43229063    -2.72362099     0.98116429
Au     7.07641970     1.16535482     2.25874494    -1.04351150     1.09715097    -0.64067567
Au     8.78176879     1.47820563     4.79703113     0.59500335    -0.26398399    -1.97071523
Au    12.44674555     2.68846041    14.34962599     0.14837678     0.71409036    -1.22940612
Au     7.26417479     1.24760298     9.69461828    -0.56999730     0.08127653    -0.63716516
Au     6.89012369     4.69348594     2.37242339    -3.67374308     1.72625312    -0.88138566
48
Lattice="11.24410 0.00000 0.00000 2.83332 4.79716 0.00000 0.12580 0.23115 14.80195" Properties=species:S:1:pos:R:3:force:R:3 pbc="T T T" energy=-182459.1831 virial="-150.1950 -15.0036 1.3564 -15.0036 -174.0690 -9.5201 1.3564 -9.5201 -125.3060"
Ag     4.05290110     2.79745291     7.61252020    -1.25664445    -0.89190740    -0.07492506
Ag    11.52873436     2.32792537    11.80324883    -1.05139288     0.53508882     0.40143564
Ag     9.80707503     0.94266376     2.22205507     0.77722658     1.04846808    -0.53872350
Ag     5.89032538     2.33132306    11.62775848    -0.80590358     0.17183394    -0.57280357
Ag    11.63737543     3.62563538     9.10770231     1.42937983     0.09406900     0.16117383
Ag     8.56112989     0.36631694    14.79750868    -0.11465574     0.63052566     1.28212879
Ag     8.83081378     3.40110764     2.30999988     1.06866825    -3.35545956    -1.94737618
Ag     8.87228854     2.60725671    12.23477300     0.36213631     1.30632228    -0.38106009
Ag    12.89167095     4.79203506    11.63479947    -0.03509490     0.48649458    -0.14186112
Ag    12.82769061     2.84991684     6.60673330    -0.90797933    -1.44604089     1.53863102
Ag     8.35305978     0.18191579     6.86501607    -0.19269849    -0.34577022     1.49564240
Ag     4.34418559     3.92845172     5.28275679     2.59551536    -0.84597306    -1.41146465
Ag     7.12568154     3.81264850     5.00976675    -0.81276634     1.13331805    -1.30194426
Ag     3.14503063     0.51677325     7.18721258    -2.41836882    -0.51440332    -2.69788377
Ag     4.38264074     0.74709316     9.46636255     1.37871349     2.29962558     4.63342363
Ag     4.06247937     4.22791711    12.36206669     1.34706766     0.52012760     1.19534724
Ag     1.57901520     1.06513028     9.86441105    -0.17921211    -1.20055629    -1.91404580
Ag     9.91273812     2.83929686    14.78629682    -0.32775900    -1.62981338    -0.57065380
Au    11.41187806     3.51649721     2.44881058    -0.79402103    -1.86202821    -0.34065210
Au     8.62131781     4.95718950    14.73212692    -0.39864064     0.69846193     1.76735803
Au     7.34576824     4.74270856    12.45089033     0.25054012    -0.64170952    -0.51923190
Au     6.83592847     2.29164907     6.89443370     1.22459616     1.23658246     1.43190704
Au     3.03890188     1.44368363     4.50926874     0.09878987    -1.61722802     0.06603615
Au     0.16047451     0.22064075     6.98598995    -0.97279733     2.44267457     3.12051496
Au     9.73378633     4.04764153     4.44843614     2.48901867    -1.68110743     2.26357823
Au     4.93614320     3.96036409     0.23897686    -0.84258917     0.20273182     2.51098804
Au     6.68709318     2.54836809    14.19399200     1.64184663     0.02588292    -1.29969048
Au     5.90621326     3.51738468     8.96823423     0.47765007    -0.69541617     2.90024680
Au     3.03750087     3.28815758    10.13647650     1.31802699    -0.01453535    -2.22122596
Au     7.76676724     0.37007992    12.45462592    -3.35832291    -2.11178310    -0.47182798
Au    13.18552818     3.76671819     4.35039930     0.54618917     2.52104100    -2.28995916
Au     2.81552224     1.80749701    12.24437050     0.11578170    -0.59414591    -0.53585979
Au    10.17376020     1.29837047     9.19206363     0.59983371    -3.16546403     0.50106799
Au    11.15780796     0.36206732    14.51522280    -0.27301852    -0.08295882     0.81311575
Au     5.80142247     1.33970496     4.82427678    -0.81907620     0.90361568     0.62332289
Au     9.09245220     3.40714035     9.75817076    -0.75994751     1.91400826     0.64780761
Au     4.87688686     2.56375411     2.92581150     0.23762792     2.35649608    -2.51211677
Au     1.15442495     0.41896507     2.53547994     1.40790364    -0.67779116    -0.69108972
Au     2.53219747     2.84726495     1.79065215     0.15583391     0.79164840    -0.39685143
Au     3.56427119     1.64203433    14.72635658     2.16842791    -0.53285564    -1.82468794
Au    10.03660272     2.52825964     6.89922397     0.31898077     0.42724938    -0.00617314
Au    11.54438571     1.63264289     4.56799265    -2.97352588     1.47732477     1.81154634
Au     8.48076326     4.87948576     7.38729429     1.57267353    -2.64187468     0.80227389
Au     7.07944544     1.16963033     2.26822593    -1.09679998     1.08112472    -0.64542894
Au     8.78835761     1.47137800     4.80156014     0.63251560    -0.19120331    -1.91334629
Au    12.44094391     2.69550996    14.34395465     0.22463566     0.62600144    -1.22497677
Au     7.25568446     1.24023445     9.70203259    -0.51660396     0.15339937    -0.71607124
Au     6.89734060     4.69586162     2.37400219    -3.52981478     1.66125531    -0.80526046
48
Lattice="11.24410 0.00000 0.00000 2.83332 4.79716 0.00000 0.12580 0.23115 14.80195" Properties=species:S:1:pos:R:3:force:R:3 pbc="T T T" energy=-182459.4027 virial="-149.5040 -14.5958 1.7271 -14.5958 -173.3160 -9.1901 1.7271 -9.1901 -124.6270"
Ag     4.04722251     2.79410022     7.62126077    -1.30750807    -0.82107331    -0.22986329
Ag    11.52385870     2.34085714    11.79572036    -0.95535798     0.42664218     0.37966281
Ag     9.79562302     0.93686946     2.22300818     0.87599585     1.10960500    -0.57602432
Ag     5.89926287     2.32268411    11.63692435    -0.88945280     0.22357188    -0.61012639
Ag    11.62849811     3.62974823     9.09359107     1.42405458    -0.00809544     0.25504827
Ag     8.55264159     0.35952442    14.79357589    -0.07667685     0.63308086     1.38206715
Ag     8.84148233     3.39262835     2.29735259     0.97596146    -3.12877480    -1.69788629
Ag     8.87932610     2.61183164    12.22293660     0.30687966     1.28149266    -0.28394142
Ag    12.88684171     4.78403250    11.63647195     0.15651641     0.48897955    -0.16717521
Ag    12.81354710     2.83690493     6.62003154    -0.63406940    -1.21179990     1.29269282
Ag     8.36590583     0.18242336     6.87863235    -0.27642641    -0.18875515     1.37575307
Ag     4.35328549     3.93799121     5.28530142     2.50618103    -0.99582333    -1.35596272
Ag     7.12727298     3.81645995     5.02030324    -0.75113061     1.20656079    -1.40613209
Ag     3.13704162     0.51022260     7.19322194    -2.37432093    -0.43916605    -2.69527613
Ag     4.39564239     0.75126654     9.46368502     1.25515247     2.20849766     4.71734217
Ag     4.05224974     4.21513973    12.36305695     1.39077588     0.59081486     1.20993020
Ag     1.57683804     1.07576321     9.85626369    -0.19047036    -1.20152956    -1.87710612
Ag     9.90518716     2.82881953    14.78122382    -0.33149821    -1.59371134    -0.62549076
Au    11.41547814     3.51419142     2.45692115    -0.81400744    -1.98276171    -0.38303816
Au     8.61560281     4.95602142    14.73769761    -0.33349537     0.64819116     1.77430329
Au     7.34181963     4.73937017    12.45535429     0.30959092    -0.69834298    -0.50279137
Au     6.84619269     2.29443496     6.89217158     1.10662418     1.02119932     1.55107722
Au     3.02870518     1.43938291     4.51647023     0.34855013    -1.55724418    -0.02348201
Au     0.15743661     0.22675369     6.97993852    -1.02159097     2.18675201     3.14031810
Au     9.73934761     4.05652549     4.45328260     2.41172963    -1.99274365     2.06371208
Au     4.94382431     3.95334813     0.22973373    -0.86058017     0.26085512     2.49811840
Au     6.69525925     2.53897151    14.18621355     1.68077173     0.01956329    -1.25032036
Au     5.89790418     3.52175120     8.97533464     0.55244352    -0.68300611     2.90568902
Au     3.04096934     3.28758112    10.13665014     1.29547352    -0.02993359    -2.17816000
Au     7.77473148     0.37431989    12.45034023    -3.48767448    -2.07612847    -0.42011502
Au    13.19331895     3.76241686     4.34103473     0.60176881     2.46106413    -1.91956267
Au     2.81788953     1.79866888    12.24771864    -0.04060459    -0.55602349    -0.59258415
Au    10.16658153     1.28626716     9.20125110     0.57242051    -2.97475153     0.54202727
Au    11.15920827     0.35793915    14.52122879    -0.18580733    -0.07492350     0.87197411
Au     5.80603164     1.33892461     4.81539346    -0.94898861     1.16477278     0.69195707
Au     9.09051535     3.40974134     9.76420382    -0.68860052     1.76310259     0.49060446
Au     4.88144439     2.57334676     2.91932989     0.18459355     2.22340204    -2.35495840
Au     1.14844032     0.40836081     2.54279290     1.40939822    -0.55704324    -0.72745656
Au     2.53846421     2.85424168     1.79131515     0.05798008     0.68764148    -0.51033976
Au     3.57254096     1.63934051    14.73119738     1.94488673    -0.42557119    -1.79393144
Au    10.04510043     2.53517704     6.90788275     0.14079396     0.39507487    -0.04309506
Au    11.54747145     1.63366374     4.57853809    -3.02583547     1.48160361     1.69597405
Au     8.47505576     4.88048056     7.39154044     1.69256743    -2.55686603     0.62731443
Au     7.08221027     1.17404861     2.27743201    -1.14955856     1.05939443    -0.64918549
Au     8.79496555     1.46462081     4.80564580     0.66332350    -0.12961930    -1.84598995
Au    12.43527738     2.70257009    14.33813457     0.29261138     0.53981760    -1.22096185
Au     7.24722752     1.23301187     9.70919083    -0.45485104     0.22133459    -0.79295004
Au     6.90375758     4.69852280     2.37539958    -3.35575368     1.57925415    -0.73476649
48
Lattice="11.24410 0.00000 0.00000 2.83332 4.79716 0.00000 0.12580 0.23115 14.80195" Properties=species:S:1:pos:R:3:force:R:3 pbc="T T T" energy=-182459.616 virial="-148.8630 -14.1335 2.0590 -14.1335 -172.4670 -8.8211 2.0590 -8.8211 -124.0900"
Ag     4.04122278     2.79054057     7.62970330    -1.34273602    -0.75130013    -0.37385359
Ag    11.51876641     2.35361890    11.78851278    -0.85879481     0.31906537     0.35478249
Ag     9.78476461     0.93161098     2.22373411     0.97030918     1.15295658    -0.61107325
Ag     5.90766437     2.31433846    11.64564728    -0.97343247     0.27514217    -0.65053193
Ag    11.62034420     3.63375621     9.07991999     1.41240574    -0.11808675     0.37304217
Ag     8.54433675     0.35312410    14.79022901    -0.04614429     0.63366912     1.47193766
Ag     8.85223109     3.38325383     2.28441907     0.85062769    -2.87496932    -1.44428396
Ag     8.88629752     2.61674590    12.21129347     0.24451052     1.24036352    -0.17621291
Ag    12.88218757     4.77640124    11.63804387     0.34803236     0.48668920    -0.19086870
Ag    12.79953038     2.82378760     6.63345668    -0.35617852    -0.99216024     1.07229806
Ag     8.37833554     0.18285164     6.89239699    -0.35224130    -0.01945107     1.23288228
Ag     4.36304523     3.94694218     5.28730380     2.39112455    -1.13382793    -1.28248826
Ag     7.12855953     3.82060319     5.03008150    -0.68640032     1.27114405    -1.50747086
Ag     3.12841180     0.50367926     7.19812986    -2.30875822    -0.37149551    -2.66564629
Ag     4.40876503     0.75611677     9.46274079     1.11787305     2.10722306     4.76953717
Ag     4.04276528     4.20288807    12.36445017     1.42846645     0.65512522     1.22482150
Ag     1.57464758     1.08570782     9.84765515    -0.20136479    -1.19555429    -1.83613588
Ag     9.89770638     2.81803895    14.77605564    -0.33179614    -1.55299670    -0.68905478
Au    11.41883139     3.51155914     2.46475641    -0.83058974    -2.09410594    -0.42331531
Au     8.60996504     4.95500774    14.74347347    -0.26707722     0.59713161     1.77465282
Au     7.33802888     4.73597945    12.45961022     0.37015646    -0.75417264    -0.48500009
Au     6.85641644     2.29734936     6.89026573     0.99345758     0.81115568     1.65944789
Au     3.01882886     1.43488752     4.52348854     0.57596533    -1.48870027    -0.10928503
Au     0.15427638     0.23313815     6.97464489    -1.05451862     1.92051568     3.13984126
Au     9.74523765     4.06480346     4.45840820     2.33509992    -2.28252722     1.87188757
Au     4.95114836     3.94655668     0.22120330    -0.87016861     0.31138133     2.47568869
Au     6.70354800     2.52981180    14.17838610     1.71450910     0.01709069    -1.19129136
Au     5.88990811     3.52587724     8.98282121     0.62313428    -0.65323102     2.90399318
Au     3.04460245     3.28701317    10.13639798     1.27121499    -0.04298700    -2.12444887
Au     7.78182325     0.37805293    12.44607955    -3.60282653    -2.03034276    -0.36366408
Au    13.20103291     3.75869848     4.33153100     0.65753580     2.40478144    -1.56485771
Au     2.82019023     1.78995214    12.25086906    -0.19353308    -0.51029731    -0.65317081
Au    10.15969171     1.27388842     9.21031556     0.54314321    -2.77335768     0.58240453
Au    11.16053789     0.35389888    14.52725453    -0.10291199    -0.06634549     0.92396809
Au     5.81034284     1.33838901     4.80686440    -1.07316958     1.41319648     0.75556996
Au     9.08849330     3.41261899     9.77018216    -0.61214178     1.60972665     0.32444481
Au     4.88592459     2.58313172     2.91255335     0.14660179     2.08510855    -2.20160539
Au     1.14287688     0.39791180     2.54978368     1.40686947    -0.42397410    -0.74769945
Au     2.54458672     2.86117842     1.79186295    -0.03797258     0.58364718    -0.62825453
Au     3.58098195     1.63663117    14.73557096     1.72821131    -0.31919560    -1.75895394
Au    10.05341459     2.54199931     6.91631841    -0.04852580     0.36147285    -0.07984520
Au    11.54989512     1.63494597     4.58915014    -3.06272332     1.48050801     1.56646633
Au     8.46981737     4.88095589     7.39580266     1.78995316    -2.46970417     0.46147442
Au     7.08468406     1.17856230     2.28628411    -1.19959381     1.03201039    -0.65229929
Au     8.80153793     1.45800615     4.80927290     0.68720399    -0.07851711    -1.77060967
Au    12.42980803     2.70955956    14.33222258     0.35143829     0.45712921    -1.21736952
Au     7.23889234     1.22601129     9.71601807    -0.38630594     0.28657511    -0.86763799
Au     6.90936600     4.70142357     2.37662011    -3.15895633     1.48380461    -0.67070828
48
Lattice="11.25524 0.00000 0.00000 2.72711 4.66227 0.00000 -0.08838 -0.12182 14.26887" Properties=species:S:1:pos:R:3:force:R:3 pbc="T T T" energy=-182445.837 virial="-211.5770 -12.9892 -5.5269 -12.9892 -242.0720 -10.0710 -5.5269 -10.0710 -219.9130"
Ag     3.89516476     2.55395892     7.31236816    -1.29506834    -0.66739304     0.39246928
Ag    11.32905742     1.96201157    11.38110152    -1.36218544     0.96073696     0.59098801
Ag     9.79136552     0.88335535     2.13256926     0.92859396     1.25726160    -0.39172359
Ag     5.65573931     2.01079804    11.19706999    -1.00332424     0.04173926    -0.84466198
Ag    11.46064831     3.30558099     8.79963240     1.60970969     0.20050858     0.20657917
Ag     8.45473478     0.13225072     0.01298519     0.13536062     0.84048812     1.52198872
Ag     8.70381851     3.26677416     2.24001195     0.35394300    -4.32251748    -3.56828689
Ag     8.63637342     2.24777042    11.81561177     0.63487416     2.08631523    -0.61240514
Ag    12.64339142     4.41218470    11.20914946    -0.81245879     0.35557729     0.30174384
Ag    12.71280283     2.64297875     6.33643609    -1.88251950    -2.87762978     3.70538524
Ag     8.22949499    -0.00078570     6.58271054    -0.22910468    -0.73981292     2.18897526
Ag     4.16408166     3.68142595     5.09352423     3.80751386    -0.50975654    -1.94444528
Ag     6.98753980     3.58550000     4.80799064    -0.96564039     1.30986646    -1.48464237
Ag     3.04810332     0.35971469     6.91764119    -2.92649276    -1.22942465    -3.38407773
Ag     4.21814569     0.49495724     9.14019456     2.28665357     3.50419571     5.84365261
Ag     3.82213637     3.84243795    11.90243158     1.65954861     0.89699192     1.83603917
Ag     1.43348274     0.78113159     9.53135266    -0.28651149    -1.60430348    -3.00028387
Ag     9.66660794     2.44861709    14.26287744    -0.09736627    -2.13024149    -0.89639845
Au    11.29116273     3.36075543     2.33807049    -0.84334040    -2.10257007    -0.38065165
Au     8.31540460     4.47992258    14.20071370    -0.68351966     0.61259878     2.05251012
Au     7.07692739     4.32361215    11.98493987    -0.06814870    -0.60631976    -1.07598371
Au     6.68379947     2.06479900     6.64512105     2.53413721     2.30592468     2.12982698
Au     2.96548628     1.30578412     4.32203324    -0.11071272    -2.04426492     0.42389443
Au     0.05866612     0.03358872     6.74662611    -0.89513418     4.04901556     4.13778882
Au     9.57082752     3.80067592     4.29003728     3.42916198    -0.59082453     3.93638928
Au     4.82228027     3.85413399     0.24325711    -0.81036674    -0.35036157     2.56506300
Au     6.41624856     2.16359757    13.68207374     2.08130728     0.55621552    -1.01271198
Au     5.73314647     3.19678414     8.63141535    -0.24474260    -1.68783633     3.83550106
Au     2.81291669     2.96039969     9.77782384     1.59501091     0.33767145    -3.59592148
Au     7.59476682     0.05505851    12.01331162    -3.57129319    -3.06196959    -1.51964469
Au    13.03611884     3.55616825     4.20997982     0.60296286     3.90469378    -4.04837072
Au     2.60186933     1.48192266    11.80358827     0.34815734    -0.92091780    -0.78951715
Au    10.04261121     1.06815882     8.84466588     0.91647086    -4.38354031     0.79335873
Au    10.95520530     0.01010013    13.97769995    -0.89294709    -0.39596879     0.70460393
Au     5.70569125     1.20305161     4.64749234    -1.16481103    -0.64061318    -0.03658193
Au     8.89902461     3.07959055     9.39065244    -1.18307979     2.82876790     0.89223959
Au     4.78460237     2.40722840     2.83850910    -0.03010300     3.54138106    -4.25857981
Au     1.13048638     0.36609127     2.43669525     1.69233259    -0.85086336    -0.94422011
Au     2.44057304     2.72784266     1.72350576    -0.01773047     1.51461321     0.44106433
Au     3.31661796     1.25033918    14.17138148     3.53285531    -0.83834514    -1.55252349
Au     9.86200048     2.28237043     6.63534413     0.93438590     0.75938715     0.76524709
Au    11.45529066     1.47879319     4.40297862    -3.95715570     1.08721843     2.34343921
Au     8.28624321     4.56639992     7.10900562     1.22562472    -3.43046234     1.35868303
Au     7.01943827     1.08900856     2.16499197    -1.15631886     1.54456899    -0.78719560
Au     8.68763726     1.33547273     4.63541925     0.54172962    -0.72492674    -3.35887773
Au    12.20124867     2.26782643    13.85643968    -0.24440562     1.00942304    -1.47104384
Au     7.11116101     0.99746024     9.34615307    -0.38926939    -0.08660260    -0.63003380
Au     6.75917440     4.51253683     2.27960402    -3.72987704     1.29075509    -1.38012425
48
Lattice="11.25524 0.00000 0.00000 2.72711 4.66227 0.00000 -0.08838 -0.12182 14.26887" Properties=species:S:1:pos:R:3:force:R:3 pbc="T T T" energy=-182446.16 virial="-210.8270 -12.4954 -4.9882 -12.4954 -241.0610 -9.6453 -4.9882 -9.6453 -218.6740"
Ag     3.89021058     2.55126418     7.32132603    -1.39795444    -0.60214706     0.15887198
Ag    11.32483968     1.97484786    11.37313708    -1.29955093     0.81058530     0.57890331
Ag     9.77919539     0.87676884     2.13393037     1.03361090     1.38669537    -0.43912023
Ag     5.66536367     2.00185460    11.20677916    -1.11557495     0.08927859    -0.91616640
Ag    11.45057675     3.30967070     8.78514360     1.61084661     0.07313224     0.29930505
Ag     8.44621808     0.12489261     0.00816155     0.16380368     0.83533626     1.67681537
Ag     8.71379212     3.26049180     2.22837153     0.37265321    -4.12469446    -3.19415701
Ag     8.64332403     2.25164282    11.80380240     0.60657624     2.09867471    -0.50517856
Ag    12.63847176     4.40363631    11.21102200    -0.57844991     0.39270993     0.28433085
Ag    12.69901034     2.63064051     6.34911546    -1.52793692    -2.48735338     3.34264795
Ag     8.24269739     0.00001107     6.59561172    -0.33615094    -0.57999811     2.06978910
Ag     4.17168889     3.69173573     5.09707109     3.75584231    -0.73017067    -1.90051712
Ag     6.98976652     3.58866630     4.81960031    -0.91989785     1.41458727    -1.60789654
Ag     3.04159994     0.35332047     6.92558834    -2.91676666    -1.12102944    -3.42991542
Ag     4.23053304     0.49772652     9.13441448     2.17841417     3.41098911     6.01359634