128
Lattice="10.24687 0.00000 0.00000 1.05141 21.29439 0.00000 -0.01286 0.27620 10.32317" Properties=species:S:1:pos:R:3:force:R:3 pbc="T T T" energy=-13700.88591 virial="-282.0690 86.0972 -9.7323 86.0972 -234.0780 47.1769 -9.7323 47.1769 -281.0100"
Si     1.47573696     4.02264884     1.30160448    -0.42551123     0.27837450    -0.86289509
Si     1.47317118     4.16604353     6.45424999    -0.46919851    -0.16174458    -0.91453032
Si     1.72273913     9.34108983     1.29333640    -0.36284370     0.18634721    -1.40241087
Si     1.75365700     9.48653090     6.46059503    -1.10575722     0.28232710    -1.07584690
Si     6.58712405     4.02186323     1.26992285    -0.41739029    -0.01927251    -0.56932434
Si     6.58981923     4.13578028     6.42353517    -0.20125265     0.73415598    -0.45393077
Si     6.86172057     9.31873114     1.27704004    -0.46939704     0.44431750    -0.61327381
Si     6.86070106     9.49218985     6.43603412    -0.94589056     0.12903591    -0.78528527
Si    10.76061172    10.69337374     2.57308314     0.59511740     0.41219666     0.93242455
Si    10.75055125    10.84193522     7.76341730     0.61835161     0.02967310     0.37733309
Si     0.27070120     5.40050778     2.60401694     0.45570342    -0.05906513     0.54014885
Si     0.27295220     5.54098965     7.74336717     0.03588103    -0.35571646     1.01151585
Si     6.18201962    21.35836620     2.59440293     0.35501660     0.12697941     0.32824831
Si     5.62412976    10.85083195     7.75106634     0.96101019    -0.24933064     0.95352678
Si     5.39550270     5.39152598     2.57879517    -0.01005074    -0.18012941     1.00484357
Si     5.35658762     5.50334730     7.74790707     0.83289241     0.13133143     0.45266392
Si     1.33833511     1.44370507     3.86444639     0.02623842    -0.46613600    -1.11551794
Si     1.32817572     1.56251335     9.02764504    -0.51944278     0.42312091    -0.88427571
Si     1.60881072     6.75577920     3.88206031    -0.48000307     0.35804432    -0.89551191
Si     1.58515189     6.90326030     9.03198616     0.06080682    -0.16048027    -1.13032276
Si     6.44787713     1.43247620     3.88305889    -0.24408083     0.21063329    -1.23495704
Si     6.48101385     1.56778004     9.01903677    -0.69350390     0.04324324    -0.67176366
Si     6.70576457     6.75554028     3.89405173     0.16248560    -0.01990783    -1.45606295
Si     6.71544229     6.90429321     9.00880939    -0.30745609    -0.33261047    -0.79411678
Si     0.13587041     2.67947118     0.00934577     0.67634083    -0.40565277     0.79990950
Si     0.14138160     2.79507012     5.12733509     0.07063962     0.08137343     1.52409287
Si     0.38743219     8.23461388    10.30771163     0.06128579     0.16933004     1.38794148
Si    10.61832770     8.12388944     5.17451462     0.89297331     0.04953680     0.78293611
Si     5.24658739     2.93613485    10.31824927     0.57787974    -0.39940772     0.80516445
Si     5.27143908     2.81818585     5.15592568    -0.10425393    -0.74012081     1.20762651
Si     5.51493904     8.25706692    10.31182525     0.22370076    -0.18986830     0.91652739
Si     5.51419159     8.09258994     5.17197319     0.23393382     0.63519781     0.82806326
Si     4.02325062     4.06989239     3.89103216    -0.26105073     0.64900629    -1.31465896
Si     4.03922949     4.22881635     9.03512970    -0.83420728     0.17297312    -0.66154479
Si     4.31004823     9.41395212     3.85630729    -0.76314819    -0.05697886    -0.38890398
Si     4.29115909     9.55749576     9.03569293    -0.59523857     0.04274491    -0.83476379
Si     9.16578545     4.10584900     3.85686217    -0.70014108     0.16854860    -0.57806807
Si     9.14528484     4.21559655     9.03900350    -0.50585428     0.64344132    -1.07886777
Si     9.43482714     9.43904323     3.87723154    -0.86566233    -0.08850663    -0.81888041
Si     9.42638218     9.55553614     9.03533796    -0.88544406    -0.11053560    -0.77911345
Si     2.57323416     0.01860689    -0.00657810     0.03463377    -0.36770947     1.18154444
Si     3.60872567    21.42592036     5.18282688     0.38879127    -0.07027981     0.41566369
Si     2.81527376     5.32524368     0.00253961     0.51561407    -0.18350307     0.78211465
Si     2.81658608     5.45613918     5.16795356     0.54250182    -0.05613289     0.91502552
Si     8.20980780    10.64152548     0.01034820     0.61475469    -0.18330252     0.94115134
Si     7.66512837     0.13496002     5.14935027     0.70031456     0.09811811     1.10287691
Si     7.93367288     5.32287685     0.02118917     0.47301480    -0.03936904     0.26241369
Si     7.95811503     5.48310810     5.17713275     0.41898377    -0.39188312     0.80539197
Si     3.89798071     1.36561768     1.27145187     0.02217173    -0.09081071    -0.56883296
Si     3.89174712     1.48991210     6.46323307    -0.13428146     0.45251320    -1.17146862
Si     4.16132493     6.69307390     1.27880272    -0.27129170    -0.00834790    -0.74105246
Si     4.16222911     6.83290333     6.44429839    -0.56434030    -0.20934126    -0.56271582
Si     9.04627803     1.37211480     1.28390371    -0.84142528     0.24245751    -0.68812310
Si     9.01861834     1.49945862     6.45300894    -0.15408379     0.03428243    -1.14495951
Si     9.27538093     6.66935905     1.29373126     0.00461470     0.10905908    -0.96217675
Si     9.29355766     6.84544933     6.46323393    -0.49464461    -0.18667345    -0.81227074
Si     2.71526499     2.73141643     2.57359791     0.17819414    -0.21382353     1.01964522
Si     2.70123093     2.87020661     7.75498940     0.15701957    -0.09802978     0.83869370
Si     2.93904357     8.06121230     2.56664922     0.68673875    -0.27533012     1.21907700
Si     2.94050290     8.20037793     7.73595177     0.74733193    -0.40218975     1.28435801
Si     7.80446490     2.74504244     2.59533169     0.50448883    -0.32968331     0.65013176
Si     7.80669795     2.86219269     7.73767260     0.54765131     0.07443071     0.85795251
Si     8.09896873     8.04958606     2.57588836     0.13063704    -0.03097494     1.38179601
Si     8.05765166     8.19941212     7.72252649     0.68920381     0.03824928     1.28845397
Si     1.99278505    14.66751896     1.30194895    -0.23267644     0.29157131    -0.75721590
Si     2.00674832    14.82686108     6.46118800    -0.60192308    -0.31509066    -1.06862687
Si     2.24935302    19.99054914     1.28444889    -0.15009470     0.19191609    -1.08415601
Si     2.28061632    20.10310295     6.45784961    -1.18070099     0.61999309    -1.10579613
Si     7.11171225    14.67154283     1.26622796    -0.25016096    -0.16665935    -0.47281316
Si     7.10076615    14.78537309     6.43421538    -0.10317254     0.64159573    -0.63666307
Si     7.40405815    19.99594431     1.28317453    -0.78180155     0.02634664    -0.75236940
Si     7.39135201    20.13627671     6.43211202    -0.88064277     0.14837787    -0.82891684
Si    11.28807367    21.35270607     2.57254461     0.64169389     0.11161872     1.02587929
Si    11.27998034    21.48834400     7.76168477     0.71510185    -0.11608202     0.36985667
Si     0.80808466    16.05264414     2.61218436     0.08455927    -0.06449104     0.32536028
Si     0.80163232    16.19156381     7.74174000    -0.08309723    -0.36152569     1.11456199
Si     5.64571129    10.70471777     2.59459465     0.50653387     0.15129004     0.24461805
Si     6.16919111    21.50209386     7.74647651     0.60169661    -0.28924760     0.86454958
Si     5.93094477    16.03061803     2.58182357    -0.12483012     0.01402359     0.94729245
Si     5.87218893    16.15756271     7.74329416     0.80169501     0.04364303     0.61636977
Si     1.86257516    12.09127938     3.85868406    -0.28859120    -0.42730058    -0.78891524
Si     1.83714296    12.21844935     9.02327178    -0.25076771     0.11243693    -0.44712705
Si     2.14013666    17.39601777     3.87409937    -0.56376326     0.39998489    -0.59150264
Si     2.11356916    17.53783777     9.04132530     0.03243928     0.01192276    -1.23921221
Si     6.97302421    12.08970226     3.87486176    -0.22265214     0.06760851    -1.30030017
Si     7.00804096    12.21496989     9.03157057    -0.83354355    -0.15910085    -0.91408623
Si     7.23572384    17.40119222     3.90158834     0.06984648     0.05978174    -1.55455506
Si     7.23746157    17.54406431     9.01066600    -0.11844153    -0.30380998    -0.83876384
Si     0.65432515    13.34621016     0.00728030     0.68368709    -0.70081750     0.88770911
Si     0.64728627    13.44675905     5.14102529     0.58540817    -0.02176802     1.36848218
Si     0.92574865    18.89251914    10.30520180     0.03033284    -0.08201803     1.46127014
Si    11.13590442    18.76609399     5.16601073     1.04125069    -0.11312084     0.78766425
Si     5.78443239    13.57460183    10.31938969     0.35769012    -0.19173006     0.82742731
Si     5.78933308    13.45951721     5.14887997    -0.05012350    -0.60084223     1.32539390
Si     6.04590502    18.89714581    10.31499258     0.21537791     0.15791824     0.96868555
Si     6.03762108    18.75320013     5.16088337     0.24462504     0.29959779     1.13918495
Si     4.54803567    14.72221906     3.88744760    -0.29750885     0.55756711    -1.30266722
Si     4.56224062    14.86853291     9.03750018    -0.73380127     0.20278414    -0.59923657
Si     4.84588495    20.06850604     3.86080971    -0.95210873    -0.04596372    -0.70194114
Si     4.81152626    20.22120697     9.04584099    -0.26642893    -0.30685131    -1.10012017
Si     9.69215347    14.75379470     3.86748306    -0.64303314     0.30394071    -0.78747791
Si     9.66291107    14.85979671     9.03655681    -0.47955695     0.64420520    -1.38227908
Si     9.95874549    20.08502427     3.88391953    -0.67011010    -0.08629781    -1.17865866
Si     9.95869136    20.19452655     9.04221933    -0.98686188     0.13912235    -0.89282125
Si     3.10363438    10.65678987     0.01389648    -0.10930019    -0.17758870     0.62216459
Si     3.08125345    10.78398351     5.18396754     0.53537903     0.01809865     0.32900118
Si     3.34308643    15.97206691     0.00705319     0.58493328    -0.33449945     0.89019071
Si     3.34700842    16.10395712     5.17039570     0.48593628    -0.05145928     0.82085808
Si     8.73551382    21.29002007     0.01562353     0.77214527     0.01066970     0.63773613
Si     8.17505608    10.79178151     5.15903171     0.86528197    -0.08417244     0.79939834
Si     8.47050713    15.95511408     0.01928161     0.31753429     0.25756543     0.30588406
Si     8.48306487    16.12753486     5.17509020     0.39408757    -0.39943772     1.06856615
Si     4.42049745    12.02525699     1.27354437     0.08152459    -0.19846964    -0.52111474
Si     4.42374813    12.13824916     6.47190090    -0.42641337     0.62911049    -1.24780686
Si     4.68588842    17.34276807     1.28281304    -0.11039058    -0.15654847    -0.70342221
Si     4.67519433    17.47809801     6.44617702    -0.22556469    -0.09430306    -0.86415428
Si     9.56665672    12.01925700     1.28115704    -0.62778323     0.15219162    -0.69399322
Si     9.54666311    12.14243680     6.44117273    -0.35278474     0.05207166    -0.84823729
Si     9.79500802    17.33163546     1.29134236     0.20331682    -0.07847208    -0.86070984
Si     9.81861249    17.49777442     6.46850868    -0.48021916    -0.32837203    -0.93353147
Si     3.22928876    13.36858163     2.58702403     0.24497966     0.06705946     0.80753794
Si     3.20978348    13.52166044     7.76550533     0.38933330    -0.22551282     0.69426454
Si     3.46320856    18.68980374     2.57562353     0.68592983     0.23197641     1.02679194
Si     3.47274424    18.83238873     7.73119279     0.68161113    -0.22296210     1.66545510
Si     8.34708466    13.39530519     2.59471128     0.28012976    -0.24327623     0.61089333
Si     8.31895160    13.49686844     7.73919923     0.69492459     0.13659920     0.71483311
Si     8.61583312    18.70645784     2.57579602     0.19491008    -0.11399405     1.45251007
Si     8.59210190    18.85007420     7.72109507     0.48654937    -0.01134733     1.44814987
128
Lattice="10.24687 0.00000 0.00000 1.05141 21.29439 0.00000 -0.01286 0.27620 10.32317" Properties=species:S:1:pos:R:3:force:R:3 pbc="T T T" energy=-13700.31624 virial="-281.7010 84.5463 -8.5199 84.5463 -235.0010 41.9292 -8.5199 41.9292 -280.3690"
Si     1.46944274     4.01956709     1.31230696    -0.16065635     0.29568843    -0.74215579
Si     1.46779816     4.18202768     6.44336521    -0.33705457    -0.55330766    -0.56800140
Si     1.70681160     9.33256119     1.29419171    -0.39166473     0.16726989    -1.42354124
Si     1.76535701     9.47534913     6.47238730    -1.67450840     0.71825700    -1.35362045
Si     6.57367127     4.02700203     1.25107081    -0.32668922    -0.30481239    -0.14048195
Si     6.57882626     4.12674216     6.41674686     0.14838980     0.98537455    -0.28687053
Si     6.87399311     9.31203490     1.26263608    -0.55638305     0.31405907    -0.52666907
Si     6.86874035     9.49672562     6.42062520    -1.26693549     0.21906911    -0.67986229
Si    10.75495293    10.68271191     2.57603502     0.96554961     0.51376445     1.05757097
Si    10.73387518    10.82692912     7.77894840     1.03155425     0.25853542     0.15007365
Si     0.28784540     5.40164802     2.62028657     0.25414954     0.18181597     0.21920177
Si     0.28177926     5.55396389     7.74901198    -0.26868773    -0.65245348     1.05656553
Si     6.18531306    21.36217971     2.60972080     0.18175169     0.31893721    -0.05828808
Si     5.61719025    10.84281370     7.76259098     0.84439278    -0.12516908     0.48996263
Si     5.41071906     5.39412499     2.57081106    -0.53441290    -0.21053591     1.07620613
Si     5.34237259     5.48630843     7.74814920     0.88848963     0.38918625     0.31735780
Si     1.33571982     1.45856627     3.85531136     0.35082299    -1.09940986    -1.10713537
Si     1.31837511     1.55108104     9.02105980    -0.42702024     0.48654688    -0.76743025
Si     1.61545981     6.75346663     3.89594590    -0.62187641     0.52149324    -0.81311992
Si     1.57553825     6.90047529     9.03950456     0.47841895    -0.22678975    -1.45764333
Si     6.44060078     1.42726417     3.89049901    -0.27251618     0.42807350    -1.43727512
Si     6.49744191     1.57151064     9.01347656    -0.82448644    -0.08345785    -0.56936788
Si     6.68807187     6.74937809     3.90557820     0.64338442    -0.04903067    -1.66688063
Si     6.71067540     6.91257091     8.99502490    -0.08689616    -0.72484270    -0.85889392
Si     0.14393986     2.69599609     0.01635265     0.75802981    -0.72380842     0.68108913
Si     0.15561180     2.78268063     5.11002643    -0.33433608     0.46478300     1.80446467
Si     0.40045299     8.21820057    10.29613321    -0.36413567     0.28065755     1.78707304
Si    10.60399798     8.13217070     5.18507069     1.19964658    -0.03631285     0.67324688
Si     5.25194526     2.93484871    10.32100982     0.59580586    -0.60963737     0.67583251
Si     5.28810116     2.82692622     5.14965973    -0.42019952    -1.04291910     1.34726380
Si     5.52834717     8.24720451    10.29820797     0.02758529    -0.00755662     1.06034064
Si     5.51830527     8.07804510     5.17884172    -0.02500064     0.97085601     0.80418262
Si     4.00994195     4.05188152     3.90586393    -0.09474257     1.05504558    -1.52415082
Si     4.04140697     4.22176209     9.04457797    -1.01507270     0.30462404    -0.54647528
Si     4.31822287     9.41195708     3.83996259    -0.98344368    -0.14723222    -0.07775243
Si     4.28803398     9.56037495     9.04506757    -0.69024047    -0.11921097    -0.84151534
Si     9.17305685     4.12072916     3.84731871    -0.73603412    -0.08385299    -0.33953435
Si     9.13324146     4.19806185     9.05164911    -0.38929806     1.03671428    -1.28993665
Si     9.44503755     9.45049330     3.87809876    -1.11550261    -0.13765168    -0.63646366
Si     9.43830525     9.55125316     9.04486456    -1.19027525    -0.31904389    -0.74914231
Si     2.58780164     0.03011997     0.00941888    -0.27393408    -0.58752604     0.69369759
Si     3.61688328    21.42642048     5.20003112     0.20847543    -0.02362631     0.03694690
Si     2.80437044     5.32915697     0.00973324     0.63829179    -0.38208617     0.71843805
Si     2.82270749     5.46293347     5.18529145     0.52896235    -0.20647872     0.62888998
Si     8.22132422    10.62974669     0.01982690     0.52139984     0.16360786     0.66053621
Si     7.65552182     0.14683495     5.14092885     0.89015692    -0.15117603     1.36054713
Si     7.91962012     5.31008530     0.03449321     0.50856620     0.21533032    -0.23828434
Si     7.97275188     5.48606451     5.18087418     0.25288848    -0.37483152     0.86220853
Si     3.88518087     1.36888204     1.25591195     0.51330423    -0.11839039    -0.16850447
Si     3.89019781     1.48662247     6.47358458     0.06157551     0.61620467    -1.36063383
Si     4.15528390     6.70128527     1.26319741    -0.08495227    -0.14880557    -0.53312787
Si     4.14587525     6.83388070     6.43876747    -0.28824268    -0.20951269    -0.25188313
Si     9.05341626     1.38061231     1.27733677    -1.13406197     0.36010030    -0.58016956
Si     9.01579502     1.49861759     6.45335265    -0.07403998     0.11870795    -1.40601047
Si     9.25757576     6.65410887     1.28654597     0.35366867     0.21387303    -0.67913902
Si     9.29418434     6.85935707     6.47605966    -0.51241414    -0.40216724    -0.86806370
Si     2.72719319     2.71878700     2.57854073     0.01616196    -0.00285824     0.85107467
Si     2.71727808     2.86582033     7.76352048    -0.31055784     0.11629509     0.66622406
Si     2.92165827     8.04974697     2.55688141     0.91553044    -0.17009675     1.35502598
Si     2.93019316     8.20794374     7.72564576     1.09611814    -0.80210554     1.83796667
Si     7.78975897     2.75573429     2.61252990     0.60290954    -0.37163635     0.28385950
Si     7.81492869     2.86070968     7.73214194     0.42811690     0.18296866     0.79277541
Si     8.11038229     8.06358960     2.58099816    -0.00188227    -0.30636427     1.43473306
Si     8.05175352     8.21000025     7.70735053     0.77461467     0.06843952     1.60866134
Si     2.00620615    14.66590905     1.28867833    -0.38616239     0.33789235    -0.54919835
Si     2.00986743    14.82952857     6.47291046    -0.74294230    -0.15562872    -1.53469781
Si     2.24575908    20.00430325     1.28106340     0.21495785    -0.02519500    -0.91196899
Si     2.26651637    20.11631685     6.46623830    -0.85256998     0.35260553    -1.17498934
Si     7.12776486    14.66028728     1.26124390    -0.66465277     0.17918988    -0.59633877
Si     7.11461971    14.76924388     6.43256225    -0.31566339     0.85378444    -0.60788040
Si     7.39895863    20.00474922     1.29255678    -0.78230674     0.04380362    -0.89286749
Si     7.39375347    20.14924273     6.44514898    -0.64864205    -0.35462959    -1.05136453
Si    11.28822803    21.35557477     2.55854247     0.51773732     0.12287687     1.34914631
Si    11.26669335    21.47718387     7.74708209     0.72215355     0.07775404     0.63579552
Si     0.81327947    16.04468881     2.61542999    -0.08663008     0.01648898     0.15959077
Si     0.79320674    16.18586314     7.73033557    -0.14706047    -0.46640589     1.44011132
Si     5.65846413    10.68893230     2.58265718     0.58269959     0.12069262     0.34657021
Si     6.17985907    21.49871509     7.73523916     0.47058337    -0.16125402     1.24429235
Si     5.94180129    16.02925624     2.57929920    -0.00425072    -0.12774479     0.91004255
Si     5.86938985    16.13952526     7.75468687     0.91026370     0.23828944     0.29833658
Si     1.85566915    12.10204997     3.86514174    -0.08141594    -0.64684413    -1.00995262
Si     1.85355040    12.21503066     9.02800590    -0.56990646     0.19875530    -0.61137585
Si     2.12953454    17.41025821     3.87625574    -0.35972115     0.07443055    -0.56543734
Si     2.11278047    17.52057468     9.03576614    -0.20764182     0.18554993    -1.09159250
Si     6.95974957    12.07580627     3.88388544    -0.25729989     0.41443684    -1.77768187
Si     6.99415473    12.20336858     9.02367223    -0.43270315    -0.08985287    -0.75641304
Si     7.22562460    17.41919956     3.89608952     0.49500836    -0.20956848    -1.68501558
Si     7.22021126    17.55743649     9.01647462     0.01821083    -0.65196817    -0.88996324
Si    10.90356372    13.35157959     0.00785525     0.68356186    -0.94967756     0.92257900
Si     0.65301181    13.43486866     5.14756735     0.35597010     0.08235457     1.63333833
Si     0.93851213    18.90507062    10.31371442     0.18830954    -0.32706205     1.17510754
Si    11.14795067    18.76536982     5.17451997     0.48420762     0.06519913     0.78670449
Si     5.80297710    13.29752783     0.00005479     0.12418815    -0.23078955     0.69577868
Si     5.78891006    13.45339646     5.14843924    -0.04651811    -0.60859684     1.44057696
Si     6.05978280    18.60915983     0.00723140     0.06246037     0.53117444     0.94842733
Si     6.03117890    18.74302015     5.15026336     0.48258661     0.67683642     1.46138787
Si     4.56499403    14.71031499     3.87369876    -0.38798984     0.91607328    -1.03224201
Si     4.54988442    14.87445263     9.03605477    -0.70430260    -0.04452039    -0.36516560
Si     4.86175764    20.06916583     3.85969511    -1.34331208     0.02441869    -0.60768081
Si     4.81555003    20.22171362     9.04681360    -0.31450234    -0.39637427    -1.05315303
Si     9.69147876    14.74658980     3.88295415    -0.76085158     0.44436960    -0.85607153
Si     9.64469995    14.85653127     9.05209099    -0.31366912     0.85038095    -1.41926570
Si     9.94126155    20.08739359     3.87860796    -0.24310132    -0.12391398    -0.97425479
Si     9.96820124    20.20299590     9.05614358    -0.99984636    -0.15439143    -1.12022230
Si     3.08618318    10.64373558     0.02370497     0.16521578    -0.07448174     0.75346993
Si     3.07181207    10.78827312     5.19925801     0.58902379    -0.22659997    -0.15852024
Si     3.34599021    15.98086721     0.01718549     0.67596016    -0.34534266     0.77773054
Si     3.35553815    16.10348862     5.16709376     0.47506624    -0.06220711     0.68843493
Si     8.74495718    21.27389619     0.00926997     0.57108242     0.34693390     0.84549715
Si     8.16123129    10.80404043     5.14850806     1.23538881    -0.31542106     0.93254586
Si     8.46270784    15.96805054     0.03394992     0.34230043     0.30981015     0.03669301
Si     8.47886283    16.14524806     5.18796661     0.24216131    -0.57401250     0.68451809
Si     4.42849582    12.00808096     1.28877728    -0.17243412     0.06784491    -0.65929047
Si     4.40619210    12.13244935     6.45482175    -0.10729997     0.67304664    -0.78222282
Si     4.69238302    17.33763675     1.29238945    -0.23243141    -0.12794834    -0.68852683
Si     4.68961970    17.48818443     6.44023027    -0.34102211    -0.40964021    -0.65406297
Si     9.57807396    12.00196668     1.29864724    -0.84808353     0.58038252    -0.91082058
Si     9.52969646    12.12969217     6.45306748    -0.05932087     0.05439389    -1.00651902
Si     9.79559724    17.34828740     1.27653118     0.44737070    -0.35756854    -0.59657529
Si     9.80063600    17.48516114     6.47887763    -0.18259214     0.01031044    -1.11931117
Si     3.23795912    13.38683900     2.59742354     0.17144417    -0.34924721     0.59083034
Si     3.19883710    13.53335061     7.75158143     0.70708753    -0.57560725     0.96633730
Si     3.46594339    18.68405918     2.58024971     0.59363243     0.48213405     0.89208567
Si     3.45825583    18.81535800     7.72729953     0.80670677     0.03175055     1.63351060
Si     8.33075436    13.40748376     2.58272623     0.65477153    -0.72638107     1.08837063
Si     8.33563248    13.50044507     7.73954519     0.39964376    -0.06326399     0.97208481
Si     8.63102261    18.71951540     2.56092506    -0.02747741    -0.26278970     1.61528615
Si     8.59835398    18.83567481     7.73928146     0.34611210     0.37783261     1.34172288
128
Lattice="10.24687 0.00000 0.00000 1.05141 21.29439 0.00000 -0.01286 0.27620 10.32317" Properties=species:S:1:pos:R:3:force:R:3 pbc="T T T" energy=-13699.27254 virial="-281.5480 80.2880 -6.9410 80.2880 -236.1370 34.8834 -6.9410 34.8834 -279.6020"
Si     1.46296457     4.01690822     1.32193099     0.10336812     0.30974710    -0.59187393
Si     1.46199417     4.19716179     6.43176470    -0.25642119    -0.88643232    -0.23795557
Si     1.69043896     9.32431077     1.29309152    -0.40804871     0.13240212    -1.38039575
Si     1.77469528     9.46521582     6.48225701    -2.19340317     1.12849528    -1.60650093
Si     6.55984818     4.03169362     1.23213464    -0.26425241    -0.56615018     0.30778445
Si     6.56809981     4.11910619     6.40960449     0.49331013     1.21389401    -0.07984012
Si     6.88543272     9.30580748     1.24759324    -0.63137519     0.16079257    -0.40811375
Si     6.87499744     9.50153550     6.40437328    -1.53982638     0.27764360    -0.54310252
Si    10.75064969    10.67281535     2.58041906     1.32319283     0.60469638     1.13308117
Si    10.71870845    10.81236354     7.79459586     1.41131945     0.50724298    -0.09919210
Si     0.30523929     5.40303083     2.63676305     0.06849232     0.39146292    -0.09527365
Si     0.29018740     5.56596954     7.75607211    -0.54660860    -0.92030337     1.02275399
Si     5.13742988     0.07202295     2.62487075     0.02069308     0.46984575    -0.42936920
Si     5.61144765    10.83467003     7.77472075     0.71049752    -0.00746513     0.01847949
Si     5.42511568     5.39642058     2.56434751    -0.98796221    -0.21767759     1.08989908
Si     5.32945670     5.46990078     7.74882479     0.93142359     0.63273278     0.17969407
Si     1.33360028     1.47183560     3.84471179     0.62392064    -1.66946099    -1.09736904
Si     1.30804572     1.54038113     9.01346084    -0.31523345     0.53439505    -0.62073642
Si     1.62121856     6.75188191     3.90863751    -0.73600025     0.65911893    -0.69986307
Si     1.56663542     6.89739554     9.04498243     0.88393156    -0.30879219    -1.72480000
Si     6.43299285     1.42266866     3.89592695    -0.29511602     0.62844109    -1.58476123
Si     6.51264579     1.57510543     9.00716813    -0.93434175    -0.21346722    -0.44529873
Si     6.67136245     6.74318413     3.91475439     1.07347579    -0.09205974    -1.79508314
Si     6.70581683     6.91980783     8.98014275     0.11009804    -1.08123517    -0.91252541
Si     0.15300162     2.71143422     0.02425251     0.79114327    -0.99616548     0.51762208
Si     0.16930208     2.77099923     5.09528981    -0.71095324     0.83560500     2.05083075
Si     0.41289999     8.20226617    10.28707008    -0.77670611     0.41904168     2.12781031
Si    10.59139443     8.14035461     5.19648860     1.45517456    -0.09609583     0.53882160
Si     5.27094762     2.65653139     0.00151133     0.58616368    -0.80261875     0.51416654
Si     5.30409169     2.83418731     5.14527586    -0.72562048    -1.28156046     1.38727893
Si     5.54171602     8.23738843    10.28612189    -0.16981363     0.18447442     1.17519913
Si     5.52236105     8.06491416     5.18677268    -0.25792180     1.26339122     0.76783275
Si     3.99657996     4.03541985     3.91852199     0.05489049     1.38013440    -1.62421649
Si     4.04218103     4.21516579     9.05322312    -1.15457995     0.41370330    -0.41342116
Si     4.32500296     9.40977176     3.82360529    -1.16459975    -0.24251968     0.20691767
Si     4.28398104     9.56307424     9.05323525    -0.76275151    -0.27852582    -0.80929515
Si     9.17927790     4.13540889     3.83736486    -0.77587691    -0.33376006    -0.10863370
Si     9.12073387     4.18204850     9.06245451    -0.26621590     1.35478623    -1.41263549
Si     9.45366076     9.46168894     3.87808889    -1.33475327    -0.21207942    -0.41430910
Si     9.44852882     9.54655764     9.05330989    -1.46296971    -0.53480635    -0.67403335
Si     2.60191003     0.04076182     0.02627445    -0.59881544    -0.84028260     0.15077906
Si     3.62527966    21.42688534     5.21718709     0.04886696    -0.00318758    -0.31051285
Si     2.79440440     5.33252421     0.01786996     0.74161049    -0.55663157     0.63722274
Si     2.82951853     5.46940577     5.20339142     0.48769547    -0.36894969     0.30159471
Si     8.23348887    10.61825979     0.03015621     0.43702201     0.49273478     0.37392691
Si     7.64719021     0.15843447     5.13442012     1.06527940    -0.39142152     1.57012818
Si     7.90634500     5.29766234     0.04739428     0.57485724     0.45795519    -0.72269163
Si     7.98765113     5.48849031     5.18577553     0.08505391    -0.34107407     0.87764671
Si     3.87315795     1.37196542     1.24023047     0.98705616    -0.06978292     0.24175136
Si     3.88874178     1.48419610     6.48201219     0.23764024     0.73753637    -1.47787860
Si     4.14916119     6.70924554     1.24695128     0.08649227    -0.27117908    -0.31764029
Si     4.12922044     6.83456537     6.43292320     0.00761310    -0.16853226     0.07055567
Si     9.05895953     1.38955440     1.27001262    -1.37175361     0.43633394    -0.45681576
Si     9.01288648     1.49794405     6.45176782     0.00420258     0.18983259    -1.61224322
Si     9.24035754     6.63923940     1.27847140     0.66874704     0.34056746    -0.37406354
Si     9.29410529     6.87263381     6.48762222    -0.50870992    -0.61451079    -0.89107287
Si     2.73907498     2.70622624     2.58462131    -0.12220340     0.19650887     0.65246805
Si     2.73280745     2.86161862     7.77291542    -0.72584849     0.28123889     0.50115697