128
Lattice="11.640 0.000 0.000 0.000 11.655 0.000 0.000 0.000 23.171" Properties=species:S:1:pos:R:3:forces:R:3 energy=-666.65069580 virial="-212.51594543 1.16014266 2.62298012 1.16014266 -214.41450500 -0.96011895 2.62298012 -0.96011895 -207.25852966"
Si     1.56404282     4.46297586     1.55177126    -0.44230819    -0.08253350    -0.17157461
Si     5.78033662     8.76887959    23.23336662     0.35279787    -0.25693798    -0.22937927
Si     5.84710960     2.78223890    17.43955689    -0.31003648     0.55485004    -0.34471920
Si     5.81700521     2.87876825    11.35476988     0.07939827    -0.13058992     0.36636513
Si    11.66677570     8.62810959    17.46033152    -0.09338962     0.11204616    -0.39578485
Si    -0.02506118     8.79127605    23.17434173     0.48014420    -0.51624072     0.30304545
Si    -0.07877685     2.81910051    17.34150746     0.13914368     0.18952152     0.26659688
Si    -0.01530527     2.83824783    11.71346388    -0.11332293    -0.12554660    -0.40532041
Si     7.32447302     7.22942524    21.78810023    -0.26604423     0.50048453    -0.07067119
Si     7.30733162     7.23670862    15.89815009    -0.28630373     0.20965314    -0.09159808
Si     7.27861306     1.39249699    21.78021798     0.05352924     0.31333655    -0.40388805
Si     7.22413745     1.47568416    15.83393879     0.28211582    -0.33918983     0.25356263
Si     1.41575915     7.22303543    21.73908146    -0.08570174     0.22079280     0.22145319
Si     1.33398789     7.08024214    15.80146228     0.29677948     0.70069999     0.47240406
Si     1.42012648     4.24541659    18.78805388    -0.07506422     0.31417006     0.06470202
Si     1.46122496     1.47244348    21.88952109    -0.15720028    -0.41212279    -0.40497851
Si     5.80355847     5.80226830    20.34892350    -0.15536392    -0.34257549    -0.14775419
Si     5.90236618     5.73619559    14.38944419    -0.29570454     0.44137174     0.08551111
Si     5.85151524    11.56201673    20.28983400    -0.18226589     0.13815665     0.14407939
Si     5.86723698    -0.01641149    14.32068627    -0.45160812     0.14534807     0.29969278
Si     0.00671396     5.80519572    20.24797778     0.02347447     0.11748490    -0.27512890
Si    -0.13364844     5.69752010    14.36905383    -0.03338422     0.16546798     0.51886898
Si    11.64664565    11.67535705    20.30711453     0.17945617    -0.05528498     0.09433636
Si    11.72467004    11.66463631    14.45084747    -0.16813615    -0.27570742     0.22768515
Si     7.26232995    10.19617088    18.73331827    -0.05403609    -0.34404835     0.29904807
Si     7.19492288    10.17558770    12.89323286     0.56086349    -0.00129928     0.33424944
Si     7.18606396     4.27187187    18.88844846     0.25683862     0.46343055    -0.02442230
Si     7.20196238     4.23246302    12.95231573     0.35082412     0.42804557    -0.16958298
Si     1.49445422    10.19286142    18.83325042    -0.22378366     0.04551669    -0.00679670
Si     1.56704986     1.52563623    15.82982296    -0.16389042    -0.20018952     0.18584791
Si     1.41347751    10.13646915    12.96822514     0.13317636     0.19833504     0.03031420
Si     5.76457790     8.66913162    17.28319729     0.21610561     0.13684894     0.26717198
Si     8.61637648     5.82503390    17.43844385     0.08185422    -0.22923285     0.06294270
Si     8.72644607     2.99753773    20.33777853    -0.02896842    -0.52211559     0.03914638
Si     8.68632654     2.94746664    14.47116893    -0.16194239    -0.46856344     0.02355704
Si     2.76921636     8.67410693    20.32681584     0.84528434    -0.02411424    -0.35454819
Si     2.82492091     8.70013672    14.44572336     0.20522662    -0.12153208    -0.00210465
Si     2.80614728     2.85759785    20.39718897     0.47538006     0.05555489    -0.43014583
Si     3.09926448     2.96077980    14.36425263    -0.70857918    -0.25094360    -0.02129254
Si    10.07598940     7.27781696    18.85865256     0.50611460    -0.20490804    -0.01807600
Si    10.05451062     7.26084637    13.03105040     0.36413178    -0.00841023    -0.15981328
Si    10.11869712     1.44064247    18.93267774     0.11580621     0.08308684    -0.47524789
Si    10.13447162     1.38785345    13.09834751     0.11327431     0.19435409    -0.18009317
Si     4.36613066     7.13933687    18.78832477    -0.38259926     0.60829568     0.07984684
Si     4.35249590     7.25781113    13.00864705     0.05755681    -0.11988722     0.00911809
Si     4.41528297     1.41833609    18.94384963    -0.31260929    -0.02326670    -0.23087007
Si     4.23675939     4.34160466    21.77749900     0.56614769     0.24697098    -0.10599016
Si     4.45060009     4.37274372    15.80461257    -0.07396645    -0.24029383     0.66780287
Si     8.70011947     5.73600588    11.57138918    -0.05634368     0.01706227    -0.02676612
Si     8.69286566     0.03051081    17.33826879     0.28517950    -0.18897040     0.12114817
Si     8.70205263    11.65306072    11.48167393    -0.00335902    -0.22031349     0.19475859
Si     2.86749202     5.75228463    17.28076105     0.18367265    -0.34000930     0.06217338
Si     2.91814372     5.81605835    11.54621169    -0.06206521     0.10961301    -0.08054136
Si     2.98572584    11.73097611    17.35712013    -0.11886302    -0.33331400     0.05702416
Si     2.92760508     0.00645157    11.56200281    -0.32044643    -0.27459514    -0.00304046
Si    10.28732852    10.16944121    21.72655423    -0.76146829     0.24185477    -0.11444663
Si    10.32873884    10.15588816    16.01767334    -0.54083931     0.35492027    -0.31948704
Si    10.24673525     4.48706502    21.68122870    -0.05550598    -0.48419696     0.56646776
Si     9.99598373     4.30304963    16.06216718     0.64026743     0.18554507    -0.67580843
Si     4.29262271    10.11099014    21.75006369     0.13796674     0.04954322    -0.11428971
Si     4.38246310    10.23354119    15.86563099    -0.18075106    -0.22791976    -0.10962596
Si     4.41791304     1.45483356    12.85166694     0.05252133     0.06800683     0.34202024
Si     1.46618374     4.35661695    12.99453180     0.04859312    -0.09147026     0.04938712
Si     8.74485996     8.79852941     8.61884266    -0.04999553     0.29175308     0.20374092
Si     8.63663637     8.77582560     2.99300266     0.14487651    -0.21879324    -0.42891175
Si    11.67761631     8.70249669     5.90777336    -0.04641006     0.11044530    -0.47210938
Si    -0.06196340     8.68885836    11.49652139    -0.04184498     0.28916872     0.32328856
Si     0.09064989     2.98276357     5.73380754    -0.20480864    -0.18391752     0.10183609
Si     0.11451813     3.00423877     0.08288502    -0.20740056     0.09573343    -0.09260927
Si     7.41034350     7.27984023    10.06245344    -0.67150110     0.07038862     0.24224904
Si     7.24166478     7.26876400     4.43900938     0.16928922     0.46706349     0.02851170
Si     7.28904550     1.34747007     9.97132872    -0.09731986     0.71965635     0.07314762
Si     7.21522926     1.62564282     4.27141085     0.41908872    -0.41174269     0.13604495
Si     1.44934971     7.32378963    10.10147356     0.03738606    -0.30450150     0.50684196
Si     1.53972461     7.23578519     4.42890264    -0.22016352     0.51823032     0.02925176
Si     1.37230845     1.41906727    10.18464192     0.10110749     0.15767242    -0.02134353
Si     1.54980720     1.38086765     4.29549394    -0.30830780     0.28176257     0.26515111
Si     5.81650352     2.93779269     5.85623081    -0.03928669     0.32966191    -0.33340508
Si     5.82206329     5.98563817     8.63681251     0.09778185    -0.53078884     0.18284330
Si     5.70166203    11.69719965     8.60972944     0.37153181    -0.17990664     0.28282893
Si     5.82560522     0.09692951     2.82341084     0.02778805    -0.14092121     0.27498156
Si    -0.04327125     5.77720683     8.92631965     0.04195013     0.10778788    -0.95002401
Si     0.02181110     5.98524758     2.91091202     0.30285347    -0.61737299     0.37886208
Si    11.55963506    11.71303199     8.64521612     0.31378138    -0.18303466    -0.10457049
Si    11.63358628    11.55210893     2.95602725     0.21162212     0.26431876    -0.17569365
Si     7.27064840    10.40426110     7.20184954     0.09361973    -0.53932476     0.18947920
Si     7.28240501    10.26942172     1.42446510    -0.09716816    -0.22416678     0.27254075
Si     7.29823452     4.46923850     7.24434056    -0.08382402    -0.02107467    -0.03840072
Si     7.40784643     4.38918119     1.34104379    -0.18721396     0.19530153     0.49749231
Si     1.43050502    10.19352978     7.26795225     0.05802196     0.30908900     0.01751007
Si     1.48571992    10.08445420     1.55003195    -0.18334678     0.32189429    -0.15354323
Si     1.39422088     4.42892806     7.31027861     0.15072909    -0.05926506     0.05074226
Si     5.90496171     5.80927136     2.92293298    -0.05120718     0.03625066    -0.19177306
Si     5.79713747     8.66008742    11.53853750     0.21290287     0.14603513    -0.03772826
Si     5.83992388     2.95580785    23.11304012    -0.07412551    -0.29117894     0.21991023
Si     5.86381424     8.87517368     5.92943486    -0.12544270    -0.39303899    -0.58159465
Si     8.76010874     2.95183501     8.56644116    -0.15894546    -0.49888217     0.22760476
Si     8.78238398     5.97749312     5.90604751     0.02443906    -0.40301734    -0.22245485
Si     8.83528772     3.02665784     2.90789396    -0.13172996    -0.07953157    -0.11739477
Si     2.86424321     8.81278093     8.72323492     0.12415929    -0.08068718     0.05447295
Si     2.96922704     8.72808529     3.01440976     0.13127947    -0.22775251    -0.17336670
Si     2.73757116     2.95787159     8.79382226     0.54302466    -0.21102419    -0.61866087
Si     2.96686376     2.92803257     2.89779956     0.11050832    -0.05158303     0.03494130
Si    10.27941196     7.37025964     7.38820103    -0.30743280    -0.51561546    -0.19889933
Si    10.23821737     7.38409161     1.53794105    -0.34521163     0.17138596    -0.23989777
Si    10.20480547     1.47402808     7.08593343     0.04200501     0.36254802     0.31889185
Si    10.34955523     1.52873525     1.48309632    -0.62453496    -0.33267504     0.09316821
Si     4.34650121     7.44179838     7.30172006     0.13539764    -0.22030649    -0.14770800
Si     4.42724367     7.26507210     1.48769766    -0.06609891     0.19729900     0.28938907
Si     4.29005268     1.49036614     7.22460472    -0.16826662     0.13332264     0.23393692
Si     4.36197095     1.46323043     1.36528920     0.02674636     0.04591905     0.24043269
Si     8.89572041     5.94268718     0.02751401    -0.40830797    -0.39414537    -0.07549732
Si     4.41815140     4.41878178     4.35076811    -0.06419323    -0.23527613     0.21976009
Si     8.70884734     0.10237416     5.69883558    -0.12191856    -0.08154476    -0.05694904
Si     8.76068600    11.63848941    -0.00944210     0.39935023     0.19450510     0.18802631
Si     2.97698685     5.86081341     5.87526370    -0.13240157    -0.07258867    -0.03433312
Si     2.94961870     5.87020616     0.08892154    -0.15654057    -0.13808069    -0.24516611
Si     2.93394169    11.60708340     5.81000574    -0.02693439     0.16720499    -0.12369973
Si     2.87634814    -0.14278168     0.06150458     0.13980362     0.53300273    -0.03080175
Si    10.16937339    10.24138645    10.03453946    -0.06959717    -0.16811550     0.29877383
Si    10.09135761    10.11571908     4.38145448     0.46100083     0.46494836     0.22346830
Si    10.13607396     4.17244070    10.21442840     0.19077969     0.72074926     0.01798726
Si    10.22626962     4.52187979     4.41025518     0.02901735    -0.11242507    -0.23323455
Si     4.37795669    10.19239046    10.19903502    -0.19277894     0.07128037    -0.52488607
Si     4.46001044    10.21131189     4.39611134    -0.24489373     0.21096227    -0.15490085
Si     4.35692443     4.38720268    10.02564186    -0.07111350     0.21606049     0.26091796
Si     8.70986965     8.84106674    14.53178773     0.10552571    -0.51335162    -0.28143084
Si     8.71132391     8.71005389    20.30181797     0.00512541     0.28018311    -0.06457852
128
Lattice="10.364 0.000 0.000 0.000 10.262 0.000 0.000 0.000 21.411" Properties=species:S:1:pos:R:3:forces:R:3 energy=-663.23925781 virial="256.42013550 -11.60888290 -22.33020020 -11.60888290 255.85231018 7.03767109 -22.33020020 7.03767109 232.52790833"
Si     1.33571372     3.99910704     1.55024740     1.32709801    -0.14140128    -0.13582280
Si     5.29913392     7.68341064    21.52857843    -1.17018437     0.42102113     0.74494767
Si     5.19436798     2.45332253    16.11897112     0.19120631    -0.32319075     0.16149208
Si     5.13643344     2.55891541    10.32070395    -0.60505766     1.48684347     1.45586395
Si    10.32146795     7.57565172    15.92627858    -0.09142222     0.26981103     0.70834970
Si     0.12953485     7.74396237    21.59352275    -0.90477175     0.41042191    -1.16907454
Si    -0.03738221     2.37402739    16.06035323     0.03016559     0.71744525     0.13172688
Si    -0.16653740     2.25921940    10.72004280     0.18355528     1.41462862    -0.01927716
Si     6.40438886     6.51614407    20.07968469     0.73840344    -1.47848749    -0.70964122
Si     6.35202720     6.45101614    14.58961438     0.02509832    -1.19503999     0.84122527
Si     6.48132660     1.20089069    20.06331418    -0.49770191    -0.20379451     1.49136901
Si     6.49490848     0.99537230    14.84922730    -1.49719310     0.56810820    -1.00724483
Si     1.20751910     6.36506632    20.09071789     1.15948367     0.11588717    -0.33586460
Si     1.31052189     6.31707511    14.62947206    -0.73091722    -1.41806853     0.46223220
Si     1.30242448     3.72223687    17.36105755    -0.46101120    -1.25728679     0.01574638
Si     1.26045490     1.15367982    20.25422234     0.33682641     0.85274625    -0.31126121
Si     5.03889045     5.13136391    18.73699270     0.15539451     0.86139214     0.15829919
Si     5.09393394     5.09068780    13.16814533     1.56499970    -1.90543485     1.83614111
Si     5.16950339    10.14377847    18.77774064    -0.58972001    -0.14377220    -0.07126730
Si     5.00544474    -0.02504459    13.22433031     1.06959033    -0.67777014     0.08126891
Si     0.05353948     5.00579637    18.58539726    -0.58499438     0.15776819     2.39032888
Si    -0.17137777     5.05691751    13.31271762     0.31480581    -1.16526246     0.76671898
Si    10.38297084    10.24233999    18.74455598    -0.15803459    -0.42741823    -0.13477579
Si    10.42483795    10.08095920    13.44111435     0.82711768     1.25577879    -0.78692931
Si     6.35513648     8.70609224    17.45241041    -0.18952513     2.45102072    -1.11128664
Si     6.69606684     8.84853852    11.94153138    -1.72154868     0.55273461     0.51463974
Si     6.38939654     3.77871352    17.60956721     0.31522593    -0.96979046    -0.29925230
Si     6.49858213     3.76060230    11.79055097    -0.84615809    -0.67291731     1.11276293
Si     1.30592022     8.90875100    17.31574371    -0.50682718    -0.92369461     0.93627715
Si     1.34516207     1.25822616    14.73847923     0.09399650    -0.22816789    -1.19299483
Si     1.26649019     8.85356598    11.97622005     0.15162379    -0.11597356     1.26718783
Si     5.05359478     7.66311019    16.06589537    -0.06267311    -0.60515404    -1.41303158
Si     7.56875546     4.95415138    16.11894386     0.82780015     0.62546563    -1.12709117
Si     7.82929492     2.44664533    18.89541226     0.42730311     1.34173000    -0.72390950
Si     7.54641262     2.20352989    13.24306177    -0.09769420     1.28296614     0.41361278
Si     2.82585367     7.53480539    18.54948650    -3.24996328     1.43043566     2.18053484
Si     2.54521808     7.45209923    13.22893369    -0.95705986     0.51768142    -0.57416868
Si     2.55340264     2.49726194    18.76660435     0.34954548    -0.50556660     0.81469405
Si     2.56639185     2.44451277    13.11712266     0.14755222     0.25971791     1.59873462
Si     9.07811375     6.26479134    17.39385360    -1.20695043     0.83428717    -0.63671988
Si     9.03196949     6.30293508    11.84535507    -0.02752520    -0.50295240     1.35026789
Si     8.97557225     1.20190927    17.37434681     0.67395794     0.22988120     1.16031015
Si     8.97896040     0.97707321    12.09103868     0.73251820     0.19658262     0.40923756
Si     3.71952776     6.27042486    17.16203716     1.52840531    -2.12605548    -0.86858517
Si     3.82994459     6.26659594    11.94646732     0.38867152     1.46646500    -1.65702844
Si     3.77934657     1.11120775    17.36388523     0.69367784     0.54582334     0.71020281
Si     3.94166050     3.80854007    20.17088858    -0.77791119    -0.27795556     0.03743330
Si     3.90163330     3.66260582    14.69985794     0.65819287    -0.40675768    -1.81819177
Si     7.69387228     5.17134605    10.57808300    -0.43973964    -0.29072368    -0.43510091
Si     7.83367198    -0.17576243    16.13702291    -1.36466455    -0.86895019     0.86122954
Si     7.71923774    10.30176002    10.54924564    -1.18185687     0.47284144    -0.40641233
Si     2.52437047     4.79066376    15.93717266    -0.30042922     1.85589123    -0.42687178
Si     2.57251979     5.07695239    10.60737839    -0.37949479    -0.92371178     1.10135198
Si     2.56443614    10.12518329    15.98620480     0.57921040    -0.29971433    -0.77542448
Si     2.38811743    -0.16429462    10.59285794     1.88090134     1.02216887    -0.20597222
Si     8.88014976     9.02937847    20.04514288     2.38213062    -0.11832233     1.17364991
Si     9.02429808     9.00927859    14.66558383    -0.32064998    -2.00501752     0.16986090
Si     9.11635960     3.82092957    20.30631090     0.34144396     0.27483484    -1.26042747
Si     8.86821329     3.45163199    14.71215345    -0.09922339     1.56473339    -0.50491691
Si     3.84844492     8.74961862    20.12036974     0.40559235     1.02455676     0.32763845
Si     3.72759059     8.70116091    14.52892498     1.18012774     1.97146583     0.92714262
Si     3.89714114     1.36609657    11.70746279    -0.48091277    -1.76376712     0.39131847
Si     1.21951504     3.74895251    11.90739093    -0.79351068     0.26614276     0.00096640
Si     7.71027995     7.85862549     8.09714400    -0.00299388    -0.65932918    -0.75630063
Si     7.65257114     7.83914216     2.73171469     1.81411195     0.74327111     1.03127325
Si    10.41167119     7.72989441     5.42418806    -1.29810095     0.24224296     2.25457716
Si    -0.22217373     7.79722277    10.78361074     0.88348252    -0.15107815    -1.18134010
Si     0.08156688     2.69072068     5.20070103     0.82307720     1.70697808     1.53153813
Si     0.16645450     2.66795150     0.26410551    -0.89897358    -1.35031271    -0.71641612
Si     6.36954676     6.48640618     9.34374867     2.00670195    -0.89151776    -1.52557158
Si     6.58772178     6.64277475     4.21031576     0.42883003    -1.83927917    -0.60247964
Si     6.47472719     1.45002791     9.11002478     0.09684008    -2.93653750     1.03386188
Si     6.62580197     1.61944416     3.86225482    -1.06693935    -0.03654051     0.86097538
Si     1.15026485     6.35356585     9.61731486    -0.85952675     1.24353313    -1.74468815
Si     1.47931005     6.67618299     4.26898943     0.97564703    -1.63112378    -0.73159695
Si     1.22311049     1.22559603     9.31398290     0.07757299     0.33178204     0.02273946
Si     1.29082658     1.38886899     4.01896040     0.97450197    -0.46112150    -0.80342031
Si     5.25226623     2.75026079     5.37468152    -0.01379352    -1.03387392     0.13685727
Si     5.21252958     5.15642302     8.01395972    -0.06190003     1.35320866    -0.80870408
Si     5.08978497    10.40767087     7.90466894     0.27226174     0.14449552    -0.70282221
Si     5.27845982     0.21915751     2.75637128     0.29769504     0.26674116    -0.76184511
Si    -0.00524937     5.07148467     8.03607583    -0.45759743     0.73571086     1.89748502
Si     0.25267291     5.28348249     2.97066610    -0.76347035     1.57903695    -1.09089613
Si    10.30654750    10.41291251     7.85587619    -1.12883615     0.00974127     0.86107004
Si    10.50750473    10.25434074     2.75653533    -0.12493335    -0.30965561     0.30781764
Si     6.52645798     9.14444926     6.60252014    -0.17684448     0.20042501     0.14745075
Si     6.45438420     9.09105951     1.42805593     0.12752499     1.01285148    -1.08924699
Si     6.52775112     4.04059143     6.68994455     0.49726224    -0.88967931    -0.12309851
Si     6.64746639     3.97596079     1.43187244    -1.04479575     0.11379201    -0.43978417
Si     1.28439077     9.20976029     6.66540271     0.37902385    -2.06827736     0.23626488
Si     1.46970964     8.95213800     1.58190931     0.40870720    -0.57852423    -0.65798366
Si     1.35364634     4.02176192     6.76290365    -1.40382135    -1.95653701    -1.00455904
Si     5.37218501     5.24623629     2.84118616     0.49834701    -0.85116732     0.89679217
Si     5.20159149     7.65178716    10.61381170    -2.10812855     1.90520692     1.85883689
Si     5.30428504     2.61763089    21.56132793     0.69021171     0.23415333    -1.03085411
Si     5.19395688     7.86685656     5.25292664    -0.88390487     0.72833979     1.56941867
Si     7.77092922     2.53088394     7.86827054     1.22116137     2.26523542    -0.46332470
Si     7.88562382     5.20337767     5.38494551    -1.02441990     0.48759830    -0.34226722
Si     8.02653664     2.80891081     2.67379167    -0.04968885     0.01481465    -0.04670208
Si     2.40700218     7.68595387     8.08326917     0.13293400     0.28409714    -0.13206773
Si     2.88061027     7.67247353     2.87797597    -1.70999026     1.05722189     0.02311649
Si     2.42845924     2.66044807     8.07738410     0.57035983    -0.59528708     0.47740358
Si     2.71409464     2.58164570     2.76536163    -0.31194448     0.82906359    -0.20357798
Si     9.02232966     6.34794954     6.84847597     0.42223120     2.21347857    -0.05462250
Si     9.04129995     6.60646924     1.53154038     1.14711475    -1.19821048    -0.18039654
Si     9.15849474     1.53476856     6.49261494    -0.72181535    -1.53714037     0.20213094
Si     9.15588682     1.26352299     1.60999448     0.60443997     0.76331389    -1.47508979
Si     3.98595635     6.60964570     6.74176849    -0.20283946     0.19992749     0.36665848
Si     4.03388398     6.43173670     1.61182728     0.24740103    -0.52658057    -2.74439287
Si     3.69500699     1.49523550     6.64185272     1.51777589     0.28451902     0.17158020
Si     3.94566428     1.37746962     1.34810950    -0.20731983    -0.50673908     0.21242991
Si     7.82582038     5.28603478     0.06675674     0.19593436     0.53505301    -0.37398598
Si     3.88626917     3.97946657     4.12906624     0.03634294     0.53293842    -0.59196538
Si     7.73704165     0.23468044     5.18718288     0.61723274    -0.41045308     0.96193188
Si     7.94176840    10.38715656     0.13466167    -1.42916286    -0.41489238    -0.20696732
Si     2.64452211     5.21211573     5.58988401     1.15238869     1.27190471    -1.72310531
Si     2.70464353     5.19034585     0.15132433    -0.30038694     0.28092271    -0.49782544
Si     2.54428124    10.40718563     5.34658623     0.82060933    -0.58779836    -0.82216501
Si     2.69842657    -0.05118352     0.13714476    -0.07528082    -0.33815154    -0.63312817
Si     9.09154847     9.09798090     9.34151265     0.51575434     0.17764321    -1.03843975
Si     9.23515862     9.10486841     4.18489890    -1.57944846    -0.27097347    -1.17502868
Si     9.02137381     3.82475842     9.40735965     0.28818998    -1.02057695    -0.51663369
Si     9.17913884     4.05760539     4.06664149    -0.19457248    -0.07896151    -0.21140993
Si     3.90232770     9.05817686     9.19945309    -0.37216753    -0.96348739     1.01380503
Si     3.97289560     9.21377131     3.95721596    -0.39555162     0.46718925     1.36638808
Si     3.83610502     4.01962570     9.18587463    -0.39704841    -1.43920374     0.51238668
Si     7.87982894     7.49319836    13.32329873    -0.17591405     0.94584215     0.48572302
Si     7.73697977     7.74698822    18.72276216     1.31414509    -2.40642118     0.17797281
128
Lattice="11.490 0.000 0.000 0.000 11.405 0.000 0.000 0.000 23.320" Properties=species:S:1:pos:R:3:forces:R:3 energy=-670.96527100 virial="-181.33027649 1.41853237 1.54923904 1.41853237 -172.99291992 -0.88951540 1.54923904 -0.88951540 -196.75970459"
Si     1.59764781     4.43896479     1.62020805    -0.44370377     0.00045609    -0.29146400
Si     5.82460193     8.59473045    23.45485766     0.23003590    -0.06620439    -0.35573429
Si     5.73675902     2.62955755    17.57214680    -0.29339933     0.13591892    -0.34892178
Si     5.63775433     2.92844293    11.48364708     0.06739592    -0.73368984     0.11798286
Si    11.40958679     8.40511816    17.42041359     0.13447216    -0.43157059     0.04774977
Si     0.07789978     8.61307646    23.39399799     0.42257121    -0.21955833     0.14913493
Si    -0.08182809     2.68035563    17.43478064     0.04541232    -0.16527244     0.23049071
Si    -0.17637861     2.70052011    11.61113942     0.19461645    -0.01702221     0.12603298
Si     7.16197471     7.11713056    21.81223093     0.09333427     0.09513912     0.40911829
Si     7.07602542     6.92045482    15.99791350     0.17966804     0.10219239    -0.35977745
Si     7.18638432     1.35638871    21.96954663     0.01039486     0.40352419    -0.37517077
Si     6.97789324     1.07262549    16.10028694     0.70374322     0.48977932    -0.09815961
Si     1.49920087     7.10435243    21.89648425    -0.43869847    -0.09858370     0.13188703
Si     1.32912148     6.86407806    15.96339675     0.07842578     0.25510648    -0.11219344
Si     1.40999222     4.05466604    18.99958195    -0.04404599     0.28180248    -0.16986366
Si     1.47597165     1.35044583    21.96985532     0.00039284    -0.18110804    -0.01000185
Si     5.64235015     5.68784956    20.39401255     0.42912382    -0.48227942     0.03441790
Si     5.73157278     5.46532447    14.48513682    -0.30553180     0.48709688    -0.20457299
Si     5.64992331    11.29963765    20.46265039     0.45274711     0.01447805     0.07578963
Si     5.67886483    -0.18966477    14.43984721    -0.49009532     0.42151350     0.35167164
Si    -0.01601134     5.58832935    20.52873160     0.31391275     0.12086567    -0.65425801
Si    -0.11263785     5.41203640    14.60389284    -0.29237163     0.38193485    -0.49994260
Si    11.50762176    11.27145882    20.44294601     0.16637486     0.25098556     0.13523033
Si    11.51800916    11.24515568    14.58802373    -0.48230809    -0.18263386    -0.07151844
Si     7.02519238     9.82475288    19.00672076     0.21114156    -0.56586206     0.05596521
Si     7.15193309     9.95267018    13.11738244     0.23983087    -0.46312508    -0.49672759
Si     7.15639140     4.14210478    19.07984320    -0.05371913     0.05551636    -0.46632454
Si     7.11224311     4.14560222    13.00446508     0.12172954    -0.06573477    -0.09628382
Si     1.34317080     9.76935873    18.93284010     0.19843663     0.36106128    -0.17364396
Si     1.43657329     1.26095215    15.97203083    -0.20523244     0.05958228     0.17965397
Si     1.42408653     9.88048447    13.12744302    -0.08181839    -0.07105426    -0.45678300
Si     5.61369275     8.38537115    17.33042746     0.26630771    -0.01391640     0.41454130
Si     8.51302943     5.49535192    17.38319187     0.00604996     0.01792618     0.49597353
Si     8.68762550     2.80422647    20.53054295    -0.22059515    -0.25598776    -0.00298490
Si     8.39998398     2.52656582    14.48672937     0.33408451     0.26111892     0.21190751
Si     2.82639522     8.44402748    20.36361442     0.50058848    -0.21870963    -0.07968992
Si     2.76733223     8.27302455    14.41226770     0.30278990     0.39749506     0.33607131
Si     2.92481930     2.69420327    20.53585514    -0.18272783     0.26302075    -0.42939064
Si     2.76588640     2.67670122    14.42923191     0.12785608    -0.19452167    -0.12420698
Si     9.99883352     6.94230988    18.82211592     0.12625921    -0.07267698     0.49613973
Si    10.05084183     6.90761318    13.04144859    -0.40555006     0.45343250     0.11823528
Si    10.04639998     1.26783637    19.04417936    -0.26134348     0.01734652    -0.29902971
Si    10.00243255     1.16422968    13.12284506    -0.32248747     0.52046716    -0.30239600
Si     4.24563619     6.86142176    18.71297073    -0.35500443     0.59280580     0.52476507
Si     4.31159679     7.01957136    12.91459653    -0.32550126    -0.17364103     0.61974603
Si     4.25199229     1.24477169    18.94750250    -0.11891479    -0.02478418     0.14845473
Si     4.33014721     4.23523962    21.96497696     0.05416896     0.09604906    -0.24179055
Si     4.30390994     3.97648650    15.82849934    -0.18369341     0.32986972     0.63953847
Si     8.50443987     5.64219585    11.49634683     0.22389308     0.05168176     0.49906451
Si     8.49919708    -0.29254859    17.64767216     0.34401125     0.60824859    -0.74529481
Si     8.47205905    11.38672692    11.51799488     0.31104213     0.04006806     0.34110251
Si     2.78986753     5.41958123    17.28573857     0.22593150    -0.10678279     0.55526853
Si     2.68502638     5.58597045    11.63629588     0.20732284     0.46058190    -0.25911117
Si     2.83042280    11.16718547    17.37859957    -0.03308628     0.28539985     0.34033373
Si     2.80900235    -0.10771863    11.49199555    -0.23586373     0.20601957     0.35406774
Si    10.12908073     9.97282014    21.98683660    -0.50768864    -0.19779065    -0.35450655
Si     9.97205590     9.75720905    15.98155850     0.02529397     0.31190985     0.27371746
Si    10.10652189     4.24392447    22.01307500    -0.08862494    -0.03546618     0.11744508