ITEM: TIMESTEP
120
ITEM: NUMBER OF ATOMS
64
ITEM: BOX BOUNDS xy xz yz pp pp pp
-3.1140387182500001e-01 1.1087275714303001e+01 -1.5890782108999999e-02
0.0000000000000000e+00 1.1635512432473000e+01 -2.9551308971599999e-01
0.0000000000000000e+00 1.1127300537966001e+01 2.9068760474299998e-01
ITEM: ATOMS id type x y z fx fy fz
1 1 1.43723 4.06564 1.14097 -0.40366 -1.43705 -0.367276
2 1 1.14607 9.93047 6.87802 0.22485 0.261746 0.0318566
3 1 7.07506 4.47572 1.33483 0.0662989 -0.921185 1.42445
4 1 6.637 4.19832 6.7334 0.436614 0.647701 0.414483
5 1 6.94129 9.85453 1.2581 -0.719943 -0.0943469 -0.174215
6 1 6.61679 9.98948 6.71244 0.597715 0.36531 0.946049
7 1 11.0471 11.2333 2.57194 -0.581368 -0.234878 0.322383
8 1 10.7327 11.3858 8.15151 0.809491 -0.809202 0.747884
9 1 -0.19549 5.62012 2.82904 0.237776 1.43072 -0.142827
10 1 -0.0693509 5.54711 8.24781 -1.20519 -0.0755683 -0.738721
11 1 5.45581 11.2239 2.63067 -0.613222 -0.469917 -0.448478
12 1 5.2677 11.3455 8.18339 -0.227856 0.0738983 -0.607272
13 1 5.49847 5.54769 2.69641 -0.445993 1.04033 -0.344952
14 1 1.28793 4.15046 6.85581 -0.206429 0.15993 -0.486359
15 1 1.28503 9.7632 1.15851 0.33675 0.0237831 -0.100132
16 1 5.36904 5.64961 8.34315 -0.838288 -0.236179 -1.49968
17 1 1.33781 7.13851 4.0361 -0.372687 -1.235 0.776181
18 1 1.08852 7.07355 9.58153 0.679237 -0.211161 -0.108735
19 1 6.75878 1.33704 3.91611 0.708429 0.442883 0.325537
20 1 6.63035 1.57961 9.42497 0.513092 -1.5099 0.66094
21 1 6.79438 7.12234 4.01307 0.167251 -0.152313 0.233866
22 1 6.67972 7.12114 9.59542 -0.505042 0.068476 1.30636
23 1 -0.365224 2.95471 10.9235 0.575886 -0.468533 0.889013
24 1 11.0065 2.73379 5.36218 -0.252814 0.158359 0.551054
25 1 -0.232745 8.43855 10.9559 -1.18823 1.38718 0.0619215
26 1 -0.0588896 8.47938 5.47754 -0.514746 0.184661 -0.756733
27 1 5.17686 2.61057 10.8615 -0.801946 0.376175 -0.208456
28 1 5.39301 2.6879 5.30689 -0.765955 0.737279 0.28826
29 1 1.2865 1.31389 3.97162 -0.00293039 0.366718 -0.28709
30 1 1.00701 1.50086 9.56384 0.0674146 -0.357074 -0.251684
31 1 5.25287 8.54314 11.0975 0.464033 0.150803 -0.763489
32 1 5.39519 8.52167 5.42471 -0.477647 -0.739793 -0.305306
33 1 3.98483 4.20744 3.9461 0.431953 -0.325609 0.812446
34 1 3.89404 9.88934 9.59664 -0.397094 0.765703 0.268776
35 1 9.58042 4.19708 4.0854 -0.33857 -0.517531 0.345442
36 1 9.37717 4.2501 9.57636 0.203741 0.916646 -0.416584
37 1 9.58669 9.88336 4.05337 0.419761 0.227804 0.219836
38 1 9.3864 10.0363 9.64279 0.560972 -0.641654 0.0128862
39 1 2.44536 11.4796 10.8441 -0.254831 -1.08724 0.639146
40 1 2.55793 11.3023 5.40892 -0.0688673 -0.904251 -0.230442
41 1 2.46976 5.58337 10.9031 0.806353 1.77928 0.214415
42 1 2.69695 5.62363 5.53019 -0.179208 0.150779 -1.1032
43 1 8.03878 11.5015 10.9237 -0.428126 0.592722 0.355343
44 1 8.10828 11.3438 5.38804 0.306342 -0.234413 -0.164815
45 1 8.12328 5.76922 11.0006 0.194117 0.686992 -1.05403
46 1 3.87894 4.16194 9.64995 0.412642 0.348267 -0.755036
47 1 3.96246 9.80494 4.00803 0.287262 0.620694 -0.00699309
48 1 8.13528 5.63792 5.37888 -0.232871 -0.338749 0.254247
49 1 4.04631 6.93539 1.22933 0.0404573 -1.05202 0.245035
50 1 3.9611 7.17739 6.83811 0.654764 -1.02511 0.573811
51 1 9.62898 1.33468 1.29876 0.124967 -0.0531985 -0.552614
52 1 9.50735 1.38427 6.79873 -0.555809 0.803602 -0.850457
53 1 9.60655 6.94441 1.2642 0.512526 0.309082 0.363109
54 1 9.82947 6.76703 6.5201 -0.34402 0.22215 1.15005
55 1 2.7357 2.70685 2.54768 -0.372641 -0.100744 0.503156
56 1 2.56752 2.72087 8.22437 -0.0795626 0.466604 -0.223883
57 1 2.65251 8.38561 2.58158 0.381204 0.306693 -0.33352
58 1 2.51582 8.48317 8.24217 -0.032521 0.20387 -0.131752
59 1 8.27745 2.79623 2.66671 -0.362294 -0.0262787 -0.338509
60 1 8.08788 2.87143 8.13591 -0.0424643 0.177388 -0.606308
61 1 4.01597 1.22984 1.20042 0.611406 -0.597781 0.0892736
62 1 3.85637 1.38717 6.71856 0.998202 0.00111868 0.443631
63 1 8.28605 8.50614 2.64881 -0.142638 -0.726556 -0.0239862
64 1 7.66721 8.86672 8.51843 1.12396 0.127902 -1.08732
