ITEM: TIMESTEP
220
ITEM: NUMBER OF ATOMS
64
ITEM: BOX BOUNDS xy xz yz pp pp pp
-3.1140387182500001e-01 1.1087275714303001e+01 -1.5890782108999999e-02
0.0000000000000000e+00 1.1635512432473000e+01 -2.9551308971599999e-01
0.0000000000000000e+00 1.1127300537966001e+01 2.9068760474299998e-01
ITEM: ATOMS id type x y z fx fy fz
1 1 1.70439 3.77291 0.923819 -0.596421 0.831586 0.0289045
2 1 1.27305 9.84565 6.87982 -0.457618 -0.513566 -0.471452
3 1 7.08058 4.51653 1.34194 -0.456417 0.161726 0.816475
4 1 6.83197 4.23827 6.74645 -1.06002 -0.0834584 0.339414
5 1 6.82236 9.86942 1.33564 0.0280244 0.274718 0.297488
6 1 6.69252 9.86064 6.81861 -0.14463 0.588188 0.310563
7 1 10.9608 11.1253 2.65407 -0.0917212 1.28154 -0.699259
8 1 10.8316 11.3063 8.08607 -0.516014 -0.0959728 -1.04941
9 1 10.6445 5.95679 2.89498 0.53198 -1.0544 -0.422955
10 1 -0.186478 5.62068 8.01951 1.47617 -0.196508 0.624278
11 1 5.32996 11.166 2.69964 0.969161 0.796655 0.0592459
12 1 5.22851 11.3401 8.24602 0.43006 -0.708743 -0.647496
13 1 5.48932 5.82214 2.8214 0.360869 -1.00112 -0.605958
14 1 1.35498 4.07182 6.75866 -1.00982 1.08742 -0.0864796
15 1 1.38407 9.90788 1.21062 -1.1384 -0.826976 0.240513
16 1 5.35167 5.56086 8.15633 0.895414 0.515432 0.592802
17 1 1.27272 6.94322 4.08328 0.042628 1.23085 -0.865773
18 1 1.24901 7.052 9.57104 -1.52054 -0.523811 0.669664
19 1 6.77604 1.51064 3.9711 -1.24495 -1.47357 0.826131
20 1 6.63472 1.44487 9.49165 0.579539 0.0639686 -0.862153
21 1 6.85189 7.20567 4.23478 -0.885041 -0.785554 -0.338465
22 1 6.66151 7.17423 9.65641 -0.924345 -0.109409 -0.58912
23 1 -0.316925 2.93422 10.8361 0.289843 -0.472335 -0.336543
24 1 -0.173127 2.73326 5.47298 0.376989 0.641147 -1.46783
25 1 0.155272 8.29281 -0.0619454 0.00877188 -0.464151 -0.859993
26 1 -0.162029 8.35034 5.39624 0.532405 0.587877 0.346589
27 1 5.11045 2.47875 10.702 -0.0289005 0.533625 0.110135
28 1 5.31684 2.82558 5.47478 1.5148 -0.312479 -0.244645
29 1 1.18264 1.38621 3.89571 -0.3203 -0.801535 1.24851
30 1 1.04366 1.26748 9.44936 -0.489796 1.42988 1.19187
31 1 5.60953 8.40536 -0.0556434 -0.848262 -0.979861 -0.0703116
32 1 5.25163 8.46148 5.44678 0.663404 0.454139 0.268764
33 1 4.12787 4.2178 4.1362 -0.672556 0.376543 -1.69307
34 1 3.85255 9.83383 9.59266 0.0887786 0.505727 -0.119727
35 1 9.46147 4.16413 4.03727 0.88512 0.35649 0.227439
36 1 9.41845 4.46852 9.38312 0.405872 -1.12357 1.54075
37 1 9.57823 9.90778 4.12772 -0.33677 -0.182437 -0.0943491
38 1 9.81994 9.59254 9.23221 -0.227596 0.865233 1.35023
39 1 2.41391 11.3589 10.8757 0.617679 -0.131457 0.0569106
40 1 2.4938 11.2127 5.36088 0.578903 1.03907 -0.0730736
41 1 2.6865 5.76206 10.9216 -0.34601 -1.29995 0.139018
42 1 2.73192 5.63919 5.37035 -0.698095 -0.982826 0.7464
43 1 7.91662 0.345106 0.197292 0.750674 -0.701703 -0.0037833
44 1 8.06245 11.3206 5.41076 -0.21316 0.0257868 -0.29965
45 1 8.12441 5.92968 10.8858 0.422072 -0.413187 0.899961
46 1 3.88727 4.18687 9.46122 -0.0398082 0.03777 0.376626
47 1 3.91263 9.85841 3.9933 -0.0525419 -0.58526 0.54815
48 1 8.19226 5.61929 5.4195 -0.782372 -0.287393 -0.445363
49 1 4.03567 6.97418 1.30843 1.1062 0.526125 -0.212765
50 1 4.03219 6.98617 6.84327 0.00425123 -0.143081 -0.561979
51 1 9.70198 1.41251 1.31797 -0.447618 0.209877 -0.148018
52 1 9.39803 1.45977 6.65202 0.584853 -0.891533 1.55194
53 1 9.50336 7.21093 1.27634 0.532949 -0.354375 -0.202422
54 1 9.47428 6.96693 6.74546 -0.116702 1.34152 1.09988
55 1 2.6779 2.72825 2.74945 1.1964 0.111477 -1.09951
56 1 2.51658 2.61382 8.22798 0.550113 0.865797 -0.961347
57 1 2.59685 8.45557 2.54664 0.03031 -0.952111 1.01391
58 1 2.63871 8.23866 8.19062 -0.152219 1.9647 0.0515289
59 1 8.13818 2.78396 2.62709 1.1464 0.769408 -0.690507
60 1 8.12933 2.89579 8.15015 -0.209554 -0.537842 0.265517
61 1 4.06297 1.13807 1.21235 -0.821848 0.490882 0.432385
62 1 3.98031 1.37435 6.70726 -0.905834 -0.909712 0.554923
63 1 8.15388 8.48094 2.81092 0.338759 0.852238 -0.909963
64 1 8.07619 8.50481 8.29668 -0.183514 -0.917503 -1.69354
