ITEM: TIMESTEP
230
ITEM: NUMBER OF ATOMS
64
ITEM: BOX BOUNDS xy xz yz pp pp pp
-3.1140387182500001e-01 1.1087275714303001e+01 -1.5890782108999999e-02
0.0000000000000000e+00 1.1635512432473000e+01 -2.9551308971599999e-01
0.0000000000000000e+00 1.1127300537966001e+01 2.9068760474299998e-01
ITEM: ATOMS id type x y z fx fy fz
1 1 1.57414 3.88642 0.936906 -0.73471 -0.674727 0.66879
2 1 1.28205 9.75754 6.94526 -0.891617 1.0443 -1.2513
3 1 7.13322 4.627 1.39702 -0.634258 -1.18575 1.25538
4 1 6.7334 4.20707 6.69258 -0.0217399 0.665074 1.25088
5 1 6.84051 9.92163 1.28581 -0.529304 -0.499 0.804655
6 1 6.72529 9.92889 6.74023 1.42702 -0.748394 0.418551
7 1 10.8918 11.1681 2.56323 -0.0336275 1.00073 0.0493245
8 1 10.8021 11.2735 8.03855 1.00126 0.190938 0.214373
9 1 10.711 5.94626 2.86994 0.294262 -0.343295 -0.116669
10 1 -0.174308 5.54575 8.00861 0.583381 0.921441 0.375985
11 1 5.29523 11.2209 2.74546 0.653834 0.142812 -0.537959
12 1 5.36204 11.1514 8.11399 -0.356419 1.04581 0.625085
13 1 5.52615 5.80839 2.74451 -0.140065 -0.0680785 -0.269589
14 1 1.30472 4.1838 6.75916 0.0591556 -0.754392 -0.234202
15 1 1.23839 9.77468 1.23502 0.211268 -0.885783 -0.106585
16 1 5.44689 5.63667 8.21891 -0.201779 -0.500083 0.160085
17 1 1.21659 7.09165 4.12979 0.870973 -1.13197 -0.536651
18 1 1.1604 6.94875 9.51433 0.375604 -0.123732 0.738098
19 1 6.67113 1.44611 4.09387 0.639733 -0.258526 -0.670122
20 1 6.63385 1.37714 9.39942 1.06226 0.0665788 0.224659
21 1 6.81632 7.22307 4.25934 -0.396961 -0.0981277 -1.41705
22 1 6.71179 7.11585 9.6693 -0.684988 0.53133 -0.470399
23 1 -0.349755 2.95306 10.7754 0.155072 -0.18185 0.792599
24 1 -0.110862 2.70357 5.46279 -0.448603 0.609853 -0.469215
25 1 0.06952 8.19929 -0.248843 0.131677 0.292672 0.157987
26 1 -0.0495104 8.41739 5.44863 -1.22432 0.551373 0.787074
27 1 5.22518 2.51109 10.7243 -1.22356 0.77933 0.233864
28 1 5.33871 2.81824 5.56032 -0.955258 -0.445013 -1.57491
29 1 1.13097 1.26668 4.0128 1.03888 0.40219 -0.392385
30 1 0.959265 1.3241 9.6107 0.00408087 0.731717 -1.18008
31 1 5.5635 8.35586 -0.156173 0.867365 0.785387 -0.333636
32 1 5.30864 8.57977 5.52544 -0.279202 -0.92609 -0.494455
33 1 4.04293 4.30782 4.01036 0.885535 -1.51375 -0.73662
34 1 3.87739 9.98207 9.54818 -0.159248 -0.457699 0.435479
35 1 9.45742 4.31221 4.06827 0.703802 -0.644764 0.186691
36 1 9.46805 4.44794 9.40713 -0.866742 -0.81923 1.25196
37 1 9.58652 9.8791 4.12581 0.718809 -0.0450844 -0.610369
38 1 9.6553 9.80443 9.29623 -0.668436 -1.0458 0.849443
39 1 2.30568 11.3318 10.882 1.15093 -0.022587 1.15848
40 1 2.53241 11.1757 5.41835 0.00541612 0.485809 -0.111933
41 1 2.65692 5.53767 10.9635 0.420182 2.22609 -0.38297
42 1 2.73616 5.58466 5.33969 -1.2167 0.859697 1.1945
43 1 8.04816 0.287639 0.209948 -0.71849 -0.196698 -1.10026
44 1 8.18874 11.2946 5.32062 -1.33557 0.465075 0.431792
45 1 8.13361 5.91213 10.9931 1.02763 -0.63932 -0.829719
46 1 3.90236 4.21734 9.47707 0.796837 -0.652997 0.274948
47 1 3.88906 9.7981 4.00109 0.220551 -0.0589103 0.4535
48 1 8.06445 5.65564 5.4603 0.442702 0.0803644 -0.189528
49 1 4.1868 7.08951 1.14585 -1.26387 -1.82355 1.08667
50 1 4.0449 6.99168 6.91169 -0.438571 0.626787 -0.780265
51 1 9.61036 1.51568 1.27739 0.98367 -0.153874 0.354121
52 1 9.4397 1.32685 6.75141 0.395823 0.86947 0.0163665
53 1 9.52846 7.16565 1.22017 0.733112 -0.150233 0.215156
54 1 9.48519 7.01931 6.79067 0.729795 -0.121699 -0.329529
55 1 2.68191 2.75212 2.653 0.0104272 -0.77886 -0.0396825
56 1 2.56044 2.65274 8.24331 -0.390611 0.345444 -0.486634
57 1 2.60722 8.28014 2.66127 0.276608 0.76887 -1.04853
58 1 2.60529 8.4446 8.25616 0.330801 -1.092 0.268118
59 1 8.24967 2.81761 2.67175 -0.956837 0.738908 0.354042
60 1 8.10224 2.89316 8.07107 -0.0520178 -0.683768 0.608978
61 1 4.00306 1.1683 1.21967 -0.287521 0.326661 -0.0449167
62 1 3.96868 1.22381 6.82887 -0.307323 0.573189 -0.429564
63 1 8.29062 8.51673 2.73444 -1.17734 0.105948 -0.269711
64 1 8.15618 8.33332 8.19156 -0.61276 1.49179 -0.452194
