ITEM: TIMESTEP
280
ITEM: NUMBER OF ATOMS
64
ITEM: BOX BOUNDS xy xz yz pp pp pp
-3.1140387182500001e-01 1.1087275714303001e+01 -1.5890782108999999e-02
0.0000000000000000e+00 1.1635512432473000e+01 -2.9551308971599999e-01
0.0000000000000000e+00 1.1127300537966001e+01 2.9068760474299998e-01
ITEM: ATOMS id type x y z fx fy fz
1 1 1.57101 3.68551 0.898819 -0.56239 0.920803 -0.277955
2 1 0.994155 10.0189 6.79743 1.66619 0.423283 -0.358945
3 1 7.02729 4.41927 1.3285 0.696776 0.351932 0.190041
4 1 6.66698 4.28971 6.68604 0.3939 -0.228365 1.51456
5 1 6.85739 9.74969 1.24549 -0.00823584 0.488073 -0.750529
6 1 6.58852 9.93675 6.84801 0.208193 -0.412068 -0.658079
7 1 10.701 0.259493 3.00871 0.603553 -0.866189 0.0318854
8 1 10.8398 11.4713 8.13217 -0.0449485 -1.21587 0.810749
9 1 10.8989 5.97748 3.0747 -0.198207 -0.675148 -0.890873
10 1 10.8007 5.64166 8.27384 -0.706595 -0.682089 0.163728
11 1 5.40934 10.9915 2.60722 -0.75887 0.0387875 0.292662
12 1 5.15009 11.4189 8.22358 1.35348 -0.291778 -0.417149
13 1 5.48999 5.50445 2.67842 -0.0365417 -0.067726 0.0363964
14 1 1.13032 4.29597 7.03063 0.172394 -0.290317 -0.509549
15 1 1.81533 9.46378 0.8175 -1.31656 0.109232 0.51435
16 1 5.41562 5.64883 8.1573 -1.5489 0.164892 -0.173668
17 1 1.37564 7.25373 4.07812 -0.597412 -0.173876 0.718913
18 1 1.02724 7.08825 9.50241 0.767574 0.735729 0.760923
19 1 6.46451 0.87651 4.33717 0.295132 1.33121 -0.7536
20 1 6.68944 1.50122 9.50757 -1.49794 0.0238315 -0.0189438
21 1 6.89939 6.91396 3.98623 -0.911698 1.26091 -0.147294
22 1 6.56614 7.13814 9.51924 1.40517 -0.14886 -0.22634
23 1 10.7683 2.68079 10.872 -0.115586 0.631325 0.458498
24 1 -0.00164193 2.87571 5.50551 -0.909665 -0.337297 0.63276
25 1 -0.208321 8.40674 11.0631 0.0673463 0.346234 -0.733362
26 1 10.965 8.66926 5.18916 0.753828 0.575196 -0.203187
27 1 4.94012 2.73722 10.7327 0.754269 -1.21704 0.0524012
28 1 5.5597 2.77367 5.46372 -1.92287 -1.65089 -1.07346
29 1 1.29692 1.46952 4.08449 -0.141374 0.440476 -0.768748
30 1 1.10913 1.40591 9.58688 0.789324 -0.533417 -0.686823
31 1 5.47801 8.70438 10.7436 0.242467 0.935413 0.143569
32 1 5.36974 8.39375 5.26922 0.642915 0.288562 0.689005
33 1 4.41752 3.59748 3.55878 0.343385 1.09535 0.810817
34 1 3.94231 9.91078 9.49082 0.220675 0.283098 0.136703
35 1 9.74051 4.38871 4.33255 -0.601622 -0.138324 -0.968903
36 1 9.35767 4.26923 9.69862 0.314884 -0.227666 -1.18973
37 1 9.39964 9.91367 4.00971 0.00886707 0.585609 0.148785
38 1 9.88338 9.65996 9.35934 -1.438 0.367073 -0.0494366
39 1 2.68922 11.3119 10.7381 -1.24667 0.450119 0.432492
40 1 2.5487 11.3736 5.34459 0.176962 -1.22505 0.628662
41 1 2.45765 5.74414 10.8567 0.146356 -0.949257 0.52652
42 1 2.2522 6.00819 5.90828 1.18759 -0.0738984 -1.07237
43 1 7.92043 0.295525 0.23345 0.83098 -0.76713 0.546066
44 1 8.03524 11.2343 5.51784 1.16848 -0.475892 0.778227
45 1 8.0266 5.85577 10.8758 -0.254738 -0.0544553 0.549831
46 1 3.82286 4.29912 9.51893 0.177587 0.729503 -0.659796
47 1 3.89566 9.74216 4.01222 0.41804 0.828442 0.0737023
48 1 8.07503 5.60764 5.50744 1.04595 0.358173 -0.374532
49 1 3.86596 6.66052 1.46142 -0.40854 -0.706527 0.440058
50 1 4.06601 7.23825 6.79826 -0.62841 -1.23441 0.578324
51 1 9.6705 1.39242 1.39853 -0.694383 0.612526 -0.926161
52 1 9.45662 1.43435 6.86311 -0.213657 0.727353 -1.1184
53 1 9.55662 6.90699 1.26951 0.954808 0.998995 0.0305077
54 1 9.43315 6.98677 6.88461 -1.4782 -0.539455 0.790001
55 1 2.7849 2.49071 2.40784 -0.912086 -0.0662587 1.17267
56 1 2.56705 2.80285 8.19284 -0.381358 0.32737 0.141222
57 1 2.72099 8.36006 2.61279 0.241622 -0.265631 -0.425258
58 1 2.6048 8.62627 8.08952 -0.855921 -0.66711 -0.12572
59 1 8.74297 3.29231 2.47886 -0.414769 -0.571785 0.706245
60 1 7.99036 2.87396 8.1292 0.663364 0.528976 0.329186
61 1 3.97833 1.03991 1.23255 1.23531 -0.414665 -1.09501
62 1 3.91138 1.42645 6.75742 0.275203 0.645369 -0.158103
63 1 8.23642 8.45223 2.5651 -0.134793 -0.789519 0.260431
64 1 8.03448 8.46794 8.12686 0.71835 0.35411 0.721029
