ITEM: TIMESTEP
330
ITEM: NUMBER OF ATOMS
64
ITEM: BOX BOUNDS xy xz yz pp pp pp
-3.1140387182500001e-01 1.1087275714303001e+01 -1.5890782108999999e-02
0.0000000000000000e+00 1.1635512432473000e+01 -2.9551308971599999e-01
0.0000000000000000e+00 1.1127300537966001e+01 2.9068760474299998e-01
ITEM: ATOMS id type x y z fx fy fz
1 1 1.78261 3.76813 1.02512 0.224676 1.07633 0.224009
2 1 1.32068 10.1181 6.73477 0.508253 -0.995449 0.713989
3 1 7.19489 4.44051 1.29311 -0.28473 -0.0371137 -0.0281283
4 1 6.53997 4.14325 6.85351 0.285261 -0.351502 -0.346353
5 1 6.80498 9.72774 1.20512 0.380593 0.147657 0.637405
6 1 6.81499 9.90336 6.68454 -1.09652 0.0904009 1.10146
7 1 10.8226 0.182279 2.90231 -0.080868 1.22438 -1.03889
8 1 10.9939 11.3328 8.1078 -1.46735 0.659026 -0.965345
9 1 10.8106 5.97913 2.83372 -0.437141 -0.285201 0.770951
10 1 10.8324 5.83249 8.22203 0.418733 -1.00767 0.478578
11 1 5.48302 11.2063 2.5243 -0.626967 -1.12898 -0.00954474
12 1 5.28792 11.321 8.18839 0.268006 -0.0658095 -1.31804
13 1 5.63786 5.47731 2.66169 1.15485 0.546947 -0.453122
14 1 0.930225 4.3375 6.69123 0.336964 0.633836 0.763199
15 1 1.49298 9.51077 1.25275 1.05173 0.00650556 -1.64075
16 1 5.28414 5.5277 8.28341 -0.233914 1.19114 -0.676348
17 1 1.18237 7.27905 4.09056 -0.0752291 0.205926 -0.0746106
18 1 1.19593 7.04689 9.73774 -0.276696 0.331628 -0.428935
19 1 6.49046 1.02461 4.21908 0.80355 0.429256 -0.290236
20 1 6.60689 1.33585 9.52661 0.764394 0.996721 0.547413
21 1 6.70781 7.09701 4.03602 0.328101 -0.436726 1.35815
22 1 6.7927 7.02053 9.57953 -0.911468 0.902428 0.131776
23 1 -0.114653 2.81867 10.9142 0.0488355 -0.0318511 -1.65347
24 1 10.7584 2.88538 5.39857 0.596837 -0.144504 -0.798687
25 1 -0.168891 8.62437 10.9161 -0.348162 -0.0296227 -0.178222
26 1 0.0674772 8.91604 5.24957 -0.838151 0.0470368 0.117214
27 1 5.01474 2.55689 10.8057 -0.00943091 -0.187085 -1.02006
28 1 5.38599 2.72341 5.27188 -0.152961 0.712332 0.738904
29 1 1.24746 1.51422 3.99665 -0.433374 0.101839 1.29647
30 1 1.16876 1.43389 9.34294 0.577575 0.00498587 1.70931
31 1 5.33021 8.62899 10.8641 0.849596 -0.835905 0.158129
32 1 5.32679 8.4139 5.47985 -0.517845 -0.172221 -0.17903
33 1 4.28367 4.03816 3.24994 -1.05291 0.308274 -0.282506
34 1 4.00231 9.93241 9.58582 -0.885683 -0.147865 -0.482814
35 1 9.39465 4.4212 4.11697 0.763101 0.0286002 0.10435
36 1 9.58861 4.32693 9.65131 -0.634606 0.308912 -0.122338
37 1 9.53876 10.1278 4.03786 -1.00144 -1.28227 0.598925
38 1 9.61479 9.88502 9.27316 0.876386 -0.761253 0.492165
39 1 2.48298 11.2459 10.9153 -0.603584 0.0441277 -0.757899
40 1 2.68538 0.0126207 5.30177 0.00563263 0.343828 -0.0977124
41 1 2.6101 5.59038 10.9788 0.256724 -0.118861 -0.140903
42 1 2.24983 5.73907 5.35934 0.364975 0.0248766 1.64496
43 1 8.11643 0.0233404 0.20746 -0.411495 0.575722 -0.542702
44 1 8.13631 11.3982 5.44566 0.290719 -0.284956 0.389048
45 1 8.29629 5.94947 11.1258 0.159057 -0.349146 -0.814576
46 1 3.85457 4.21608 9.52494 -0.501845 -0.677721 0.272378
47 1 4.09908 9.83243 3.94079 -0.380671 -0.303254 0.252402
48 1 7.91538 5.59607 5.67534 -0.100857 0.441876 -1.65035
49 1 3.74643 5.85606 1.86697 -0.974503 -0.512326 -0.0244183
50 1 3.78176 6.90589 6.78783 0.898219 0.838258 0.658056
51 1 9.80185 1.39656 1.0794 -0.830438 -0.27964 1.45286
52 1 9.49829 1.5026 6.81809 -0.232266 -0.546825 0.461154
53 1 9.72121 7.3031 1.30016 -0.68367 -0.22944 0.0660149
54 1 8.9905 6.87566 7.29024 0.147731 0.973183 -0.185732
55 1 2.76203 2.42505 2.50563 0.602172 0.716066 -0.0320593
56 1 2.40828 2.97934 7.98241 0.76465 -0.374978 0.357127
57 1 2.81067 8.16143 2.60565 0.516098 -0.59272 0.293547
58 1 2.54917 8.45836 8.33518 0.327828 -0.0846684 -1.27072
59 1 8.61189 3.08411 2.37504 0.0928276 -0.407697 0.099525
60 1 8.06646 2.9043 8.21705 -0.0567672 -0.67353 0.722312
61 1 3.95773 1.02612 1.14813 0.880518 0.11674 0.134551
62 1 3.98138 1.53199 6.76343 -0.508259 -0.648434 -0.15178
63 1 8.18472 8.4921 2.77033 0.436026 0.553039 -0.523831
64 1 7.90194 8.61561 8.35236 0.669196 -0.596655 -0.566212
