ITEM: TIMESTEP
390
ITEM: NUMBER OF ATOMS
64
ITEM: BOX BOUNDS xy xz yz pp pp pp
-3.1140387182500001e-01 1.1087275714303001e+01 -1.5890782108999999e-02
0.0000000000000000e+00 1.1635512432473000e+01 -2.9551308971599999e-01
0.0000000000000000e+00 1.1127300537966001e+01 2.9068760474299998e-01
ITEM: ATOMS id type x y z fx fy fz
1 1 2.22502 4.28321 1.46779 0.74689 0.436077 0.39942
2 1 1.23778 10.0622 6.7279 0.352386 0.0737515 1.15499
3 1 7.01964 4.62233 1.49292 -2.37236 -0.43011 0.057209
4 1 6.55203 4.13858 6.68605 1.17742 0.577019 0.993748
5 1 6.80353 9.9943 1.4165 -0.0205821 -0.246559 -0.933223
6 1 6.93394 9.90832 6.77883 -0.199683 -0.439004 -1.04241
7 1 11.0066 0.318907 2.60803 -0.957956 -0.127633 0.69924
8 1 10.7363 11.2121 8.07493 0.858615 -0.176186 0.871373
9 1 10.6871 6.01794 3.15568 0.670889 -0.0776735 -0.40982
10 1 10.8589 5.39811 8.36655 -0.0881028 0.266643 -0.322226
11 1 5.30664 11.3596 2.71348 0.402351 -0.392495 0.253036
12 1 5.35557 11.0516 8.028 -0.301389 1.02399 0.909855
13 1 5.37596 5.42892 2.85023 6.81208 1.56477 3.307
14 1 1.40688 4.27673 6.95338 -0.460916 -0.578613 -0.261951
15 1 1.60084 9.28973 1.03009 0.0264574 -0.269023 -0.0145883
16 1 5.45243 5.62205 8.29287 -1.09842 -0.815486 -0.422903
17 1 1.13686 7.09322 4.50419 0.72396 0.0534648 -0.248597
18 1 1.02278 6.98419 9.63578 0.0888456 0.608331 -1.41052
19 1 6.48634 1.3815 4.30434 -0.125986 -0.25035 -0.393701
20 1 6.85436 1.20308 9.34495 -1.79436 -0.0182017 0.139737
21 1 6.77698 7.14501 3.89852 -0.406799 0.266504 0.401291
22 1 6.5877 7.2382 9.59106 0.808634 -0.0354159 0.203853
23 1 10.4706 2.49932 10.746 0.470259 0.279236 0.526639
24 1 0.0199445 2.80698 5.56897 -0.847789 0.783464 0.040672
25 1 -0.231333 8.30533 10.8442 0.405239 0.958222 0.873936
26 1 0.175902 9.23942 5.00246 0.545418 -1.62832 -0.255619
27 1 5.15723 2.27242 10.6857 0.5514 0.775607 -0.354395
28 1 5.17761 2.76264 5.5354 0.100172 -0.918821 -0.245146
29 1 1.19873 1.58803 4.03167 0.420808 0.143648 -0.345371
30 1 1.03641 1.19607 9.6194 -0.745439 0.359844 -0.455062
31 1 5.66999 9.16163 10.6217 -1.18322 -0.88008 0.504791
32 1 5.60595 8.76948 5.20009 -0.224667 -0.515013 0.1471
33 1 4.31423 4.61566 2.1134 -4.81869 -5.87486 -3.28253
34 1 3.80748 10.0066 9.46484 0.919214 -0.918948 -0.108213
35 1 9.68076 4.25272 4.30151 -0.704843 0.567945 -0.484916
36 1 9.26233 4.22482 9.65918 -0.0623963 -0.2971 -0.38553
37 1 9.53289 10.2208 3.84996 -0.198872 0.0155251 -0.00215067
38 1 9.57111 9.60062 9.48466 0.479093 0.432026 -1.31468
39 1 2.45431 11.2492 10.9271 0.115999 0.0420126 0.767647
40 1 2.41855 11.3977 5.27697 0.620516 -0.850884 0.880731
41 1 2.50559 5.63132 0.0262294 2.97896 -1.49771 1.67511
42 1 2.79396 5.43505 5.42114 -2.51793 1.52861 1.41345
43 1 8.11527 0.159157 0.151573 -0.499188 -0.10553 0.264212
44 1 8.12035 11.4846 5.43142 0.28982 -0.566964 -0.700749
45 1 8.04564 5.9176 11.088 -0.0803238 0.336464 -1.13673
46 1 4.16499 3.87284 9.27783 0.347352 0.268454 1.04846
47 1 3.95387 10.0082 4.04474 -0.593748 -0.871074 -0.141724
48 1 7.97341 5.63681 5.35954 0.613332 -0.613889 0.816989
49 1 3.72319 6.01592 1.63955 -3.07734 3.02108 -4.12747
50 1 3.67948 6.64521 7.11419 0.174575 0.691246 0.471692
51 1 9.47296 1.43603 1.43718 0.333588 0.883999 -0.97851
52 1 9.58416 1.40502 6.74295 -0.185993 0.491357 0.264629
53 1 9.69969 7.10736 1.2316 -0.496442 -0.356483 0.982686
54 1 9.34524 6.62284 7.01666 -0.019939 0.569891 0.166123
55 1 2.83119 2.69768 2.68917 1.66057 1.2245 -1.09811
56 1 2.49069 2.63911 8.3102 0.328017 -0.0671477 -0.6293
57 1 2.37925 8.26851 3.06244 -0.0408962 1.98722 0.63267
58 1 2.40868 8.47498 8.21873 0.284849 -0.932249 -0.393818
59 1 8.56161 3.28953 2.49976 0.186811 -0.252117 0.610546
60 1 8.06183 2.7196 8.04097 0.211129 1.01286 0.359942
61 1 3.94063 1.19608 1.2687 -0.162134 -0.376961 -0.794657
62 1 3.92366 1.28773 6.80963 -0.272196 0.0235801 0.0971487
63 1 8.25564 8.51858 2.5464 0.13994 0.664211 0.0558665
64 1 8.17133 8.36636 8.06991 -0.286981 -0.550638 0.702851
