128
Lattice="10.949 0.000 0.000 0.000 10.951 0.000 0.000 0.000 21.842" Properties=species:S:1:pos:R:3:forces:R:3 energy=-687.72229004 virial="-8.15318966 -4.11107826 4.34456396 -4.11107826 -9.57879925 2.64452910 4.34456396 2.64452910 -5.34901571"
Si     1.44385210     4.13214085     1.29950713    -0.41438085    -0.14829677     0.15914066
Si     5.29860292     8.05528220    21.88498169     0.77863765     0.72131550     0.45715156
Si     5.52661131     2.70996494    16.47159173    -0.15892762    -0.01610925    -0.33204919
Si     5.54171218     2.81164357    10.87113451    -0.24255390    -0.21422388     0.12476026
Si    10.94582771     8.34645843    16.43586744    -0.11053672    -0.44473207    -0.15837407
Si    -0.05295730     8.22348695    21.83491868     0.07036208     0.03818977     0.00369211
Si    -0.01436228     2.56855614    16.37323775     0.30298582     0.40373543     0.32772690
Si     0.04132291     2.88291689    10.93882469    -0.25645277    -0.52032995     0.27689093
Si     6.76792056     6.81178461    20.62032727     0.13518396    -0.16563259    -0.93278527
Si     6.71770806     6.67503927    15.08216242     0.61098480     0.60556638    -0.12860543
Si     6.70009332     1.45197194    20.42024937     0.64365089    -0.45559731     0.25422662
Si     6.77038204     1.34465973    15.00233699     0.43654740     0.24839981     0.17612791
Si     1.38854228     6.83517298    20.46794534    -0.32797271     0.05569557    -0.06877902
Si     1.34925899     6.89502822    15.03690206    -0.00874632    -0.00931677    -0.01600911
Si     1.37908125     3.98619020    17.77206035    -0.21463671     0.21763217    -0.41843766
Si     1.28453428     1.22150235    20.49042287     0.49899715     0.50007749    -0.25618780
Si     5.43200286     5.48175051    19.09519110     0.35438192    -0.13920766     0.09106543
Si     5.39750397     5.39113862    13.67271605    -0.03951511     0.26025176    -0.26354909
Si     5.44289248    10.84029339    19.18337281    -0.14058357     0.44516712    -0.11621825
Si     5.46443516    -0.00782629    13.63401626     0.15636234    -0.37025732    -0.13896441
Si     0.02470633     5.47418358    19.04325479     0.07040365     0.13554554     0.20914775
Si     0.09880969     5.39622372    13.67460096    -0.02395689     0.14313278     0.24276052
Si    10.78409863    10.87826323    19.14728270     0.16797584     0.20091878     0.06273897
Si    10.84657186    11.02671954    13.59384017    -0.00370965    -0.68192828     0.27934846
Si     6.75658044     9.61752901    17.73310511     0.26578364    -0.45904681     0.02128202
Si     6.85460751     9.36808403    12.34977795    -0.13568915     1.04088902    -0.09314772
Si     6.90142865     4.11769544    17.76575652    -0.18782638    -0.01489836     0.26307374
Si     6.87223801     4.13089863    12.34638077    -0.25177059     0.17288169    -0.42552793
Si     1.38589247     9.67701840    17.86475094    -0.27347028    -0.31783623    -0.58638865
Si     1.35808850     1.15735915    15.05353053     0.03923540     0.92758054    -0.12575366
Si     1.39018887     9.75041405    12.24137889    -0.03817720    -0.35138297     0.21354666
Si     5.43610496     8.19971222    16.38298091    -0.05764968    -0.29283476    -0.01535542
Si     8.25496677     5.47576371    16.42548748     0.12248653     0.00120302    -0.02679240
Si     8.21425494     2.73650364    19.19470900    -0.05707727     0.27081007    -0.39237726
Si     8.17245490     2.79395750    13.70688197     0.30215710    -0.21488443     0.18575951
Si     2.70457487     8.13035613    19.00434429     0.22344771     0.10533395     0.55432892
Si     2.68507082     8.33157223    13.66805516     0.08402141    -0.35811383    -0.08389257
Si     2.75732610     2.71653162    19.16895155    -0.11350357    -0.53345048     0.00511847
Si     2.74664673     2.59684230    13.69989638    -0.04413822     0.06747862     0.01364016
Si     9.54513204     6.96552189    17.82011977     0.23013493    -0.58104265    -0.47771537
Si     9.75298411     6.73671468    12.28412723    -0.66260564     0.61964214     0.16585743
Si     9.48226582     1.38539646    17.78106934     0.28944528    -0.37910518     0.00169851
Si     9.52302865     1.50085995    12.27238284     0.23096678    -0.15863810     0.11591159
Si     4.05255067     6.72083490    17.64663076    -0.07680656     0.27438083     0.04693493
Si     4.04566886     6.88267620    12.29969638     0.27815044    -0.09381592     0.35709220
Si     4.17171830     1.32970017    17.80521751    -0.07874312     0.43071371     0.41580874
Si     4.17044402     4.07146972    20.48936546    -0.49112892     0.41938561    -0.18694937
Si     4.13448647     3.95532635    14.99743676    -0.18762988     0.18474205     0.30890000
Si     8.18246028     5.57526605    10.98300942     0.11515501    -0.46060038    -0.22407186
Si     8.15678462     0.03377475    16.40051588    -0.10258090    -0.36918306    -0.23460428
Si     8.18421880    10.93386732    11.06022733     0.14188515    -0.27750796    -0.44247532
Si     2.66261654     5.31405961    16.25292542     0.23302995     0.41989416     0.58259559
Si     2.81924637     5.47517163    10.93053766    -0.54395020    -0.10053057     0.00392795
Si     2.81304338    11.00935551    16.50469563    -0.40996236    -0.81539905    -0.50659400
Si     2.81035035     0.13195951    10.87196913    -0.02875354    -0.62143129     0.25585502
Si     9.35519124     9.52925469    20.48731006     0.53642333     0.27438918     0.29277873
Si     9.44735539     9.52775867    14.98871577     0.47930098     0.37594616     0.03535693
Si     9.69078032     4.10457033    20.44492114    -0.41541833     0.08204645     0.07630855
Si     9.68085153     4.06504131    15.09501182    -0.50966811     0.15145433    -0.29313344
Si     4.07526906     9.45245333    20.49633797    -0.24225417    -0.01201100    -0.36148337
Si     4.11668921     9.60582050    15.04561540    -0.18887614     0.11294166    -0.00471267
Si     4.18127554     1.44653079    12.26610755     0.02415561    -0.36818257    -0.08996026
Si     1.51541270     4.05611923    12.34642820    -0.32505274     0.26675588    -0.18430881
Si     8.21585322     8.28624286     8.33873523    -0.28687632    -0.11651918    -0.71846080
Si     8.12207451     8.22593146     2.70927116     0.34408194     0.11072367    -0.00605973
Si    10.92440440     8.22496296     5.40732442    -0.32001615     0.06371452    -0.00627152
Si     0.07413491     8.25602846    10.95111884    -0.02399412    -0.14620736     0.04441672
Si     0.00285865     2.80002774     5.30794116     0.33497286    -0.19366038     0.71724719
Si     0.06297818     2.72334580    -0.04521038    -0.22723332    -0.02293013     0.33958036
Si     6.76089769     6.83652495     9.54559639     0.27258560    -0.01060305     0.05127345
Si     6.87828636     6.74220884     4.06631217    -0.05863733     0.43755180     0.02337028
Si     6.86310570     1.30414552     9.59905138     0.10960191     0.11764352    -0.15819217
Si     6.89157548     1.57768371     4.05196832    -0.18746726    -0.74289429     0.26329240
Si     1.41385073     6.86042913     9.60295551     0.38101643     0.06242270    -0.32728773
Si     1.32500422     6.84322888     3.94534515     0.28576601     0.39525104     0.82017410
Si     1.33844807     1.41901120     9.66053117     0.08762863     0.01485445    -0.94079459
Si     1.42344332     1.47462021     3.95405350    -0.15110183    -0.21755755     0.16364035
Si     5.55201814     2.75700358     5.61086312    -0.26661253    -0.30384356    -0.25578612
Si     5.40631528     5.41829505     8.13337141     0.22099654     0.33446085     0.40614355
Si     5.50940430    10.85723046     8.18000321    -0.10600428     0.36811194     0.21597555
Si     5.50703313     0.10896194     2.68158281    -0.02807676    -0.10058853     0.34763086
Si     0.11542528     5.47865936     8.22137339    -0.48898384    -0.01617565    -0.10774806
Si     0.01341495     5.42791398     2.72475246    -0.26350582    -0.11866779    -0.19817099
Si    10.99462288    10.95251569     8.18104800     0.02707759     0.01334033     0.22626679
Si    10.89412212    11.00697365     2.73991577    -0.05491072     0.03581488    -0.22290632
Si     6.80454631     9.57640066     6.74210525     0.87359804     0.16797155     0.38237572
Si     6.76574691     9.63209845     1.32340159    -0.18554881    -0.56555307     0.05177228
Si     6.91708886     4.07114507     6.99905010     0.20610876     0.21045506    -0.61909819
Si     6.90265119     4.21732666     1.28026342     0.06332684    -0.06705827     0.56224960
Si     1.33980579     9.53611177     6.78404060     0.50647628     0.23210195    -0.01782392
Si     1.33440673     9.62977605     1.37412613    -0.06125177    -0.22106999    -0.25611860
Si     1.43574907     4.08140215     6.75519987    -0.30495790     0.32737696    -0.03520222
Si     5.46204364     5.36197033     2.76826343     0.58309150     0.09865697     0.23961344
Si     5.43630834     8.18809103    10.92820507    -0.08093452    -0.05082772    -0.04941338
Si     5.59324143     2.87568720    21.84271375    -0.90535176    -0.87204319     0.05710305
Si     5.57371422     8.26829857     5.27434619    -0.61977911    -0.27427271     0.50625819
Si     8.34274527     2.66901059     8.28375718    -0.31504616     0.12148964    -0.11281378
Si     8.24289954     5.56367278     5.57372486    -0.18099388    -0.31897211     0.27925885
Si     8.23795439     2.89940690     2.67407965    -0.04363916    -0.34487221     0.08789180
Si     2.85736213     8.15395226     8.10584370    -0.81969798     0.27978760     0.20442852
Si     2.74693128     8.23512674     2.67418566    -0.16133398     0.06751376     0.24563098
Si     2.72118349     2.64431852     8.10616211    -0.17650148     0.28636116     0.51698792
Si     2.88140627     2.84491222     2.61952901    -0.39075530    -0.63070023     0.31635565
Si     9.60927670     6.94455668     6.97687334     0.15080354    -0.27818152    -0.50155932
Si     9.59957094     6.82425878     1.41362548    -0.09624393     0.36078909    -0.20030284
Si     9.70993291     1.38699282     6.78011288    -0.18661097     0.30588889     0.35000950
Si     9.51350984     1.43046545     1.32485469     0.32490611    -0.05314561     0.06373332
Si     4.19173449     6.86355923     6.70437269    -0.06556459    -0.03933354    -0.14733395
Si     4.11815143     6.70950160     1.54226908    -0.58452427     0.51678729    -0.93070459
Si     4.10409088     1.25577656     6.86621207     0.17073856     0.26271397    -0.55092013
Si     4.12739923     1.33977927     1.27423185     0.23181200     0.60577518    -0.05437183
Si     8.31158189     5.49734768    -0.03502437    -0.08541664     0.03756509    -0.00207314
Si     4.17748604     4.03235285     4.18965640    -0.21823655     0.31135553    -0.21726440
Si     8.23015542     0.16661317     5.50556033    -0.55489862    -0.45134273    -0.28902319
Si     8.04846379    11.05693026     0.00008546     0.44552100    -0.30985203    -0.22748299
Si     2.74023538     5.53878455     5.35277959     0.07524370    -0.30341047     0.31381375
Si     2.77634833     5.48910844    -0.02582393     0.13141550    -0.02770706     0.04844040
Si     2.68851959    10.97466676     5.35687080     0.11865954    -0.07065035     0.39715201
Si     2.77577891    -0.06957300    -0.05440506    -0.41019189     0.13162421     0.30142170
Si     9.65298304     9.61076550     9.62343442    -0.35463136     0.24422809     0.06026573
Si     9.42060980     9.69205402     4.11216113     0.77900147    -0.49664235    -0.20131175
Si     9.56735380     4.18738111     9.62522422     0.29756409     0.06207162    -0.29419446
Si     9.48865944     4.18022960     4.17040940     0.56634521     0.17047887    -0.49894550
Si     4.09472219     9.55300596     9.52468751     0.12081242     0.18050024     0.16256009
Si     4.10380859     9.66268327     4.00906218     0.15679994    -0.18515308     0.01441718
Si     4.00670908     4.06798042     9.49825651     0.65370917     0.00377616     0.03619584
Si     8.18105577     7.99157201    13.67135581     0.23860046     0.16032125     0.17116439
Si     8.04158782     8.16473099    19.12106002     0.04972186     0.22238523     0.16417456
128
Lattice="10.892 0.000 0.000 0.000 10.765 0.000 0.000 0.000 22.459" Properties=species:S:1:pos:R:3:forces:R:3 energy=-679.47045898 virial="1.48422766 8.72895908 -11.59547520 8.72895908 13.74082088 -2.62832117 -11.59547520 -2.62832117 -32.23760986"
Si     1.38874103     3.96050652     1.28839353     0.02760908     0.74153566     0.76385915
Si     5.39698868     8.03084530    22.66339564    -0.72450531    -0.91548288    -1.65415347
Si     5.48022570     2.61914482    16.92310201    -0.17807886    -0.15586883     0.38455820
Si     5.51650231     2.67235725    11.23219208     0.22892237    -0.12134390    -0.32656890
Si    10.84561197     7.94868354    16.79959734    -0.78439677     1.03113222    -0.14421301
Si    -0.09813180     8.14896539    22.35577212     0.04779593    -0.22840458    -0.09204167
Si    -0.01463499     2.48884918    17.06195418    -1.06936359    -0.16656058    -1.42020559
Si    -0.04434969     2.70957302    11.39246027     1.13290429     0.52872145    -1.09594083
Si     6.65453713     6.55488885    20.95244889     0.50207365     1.24502468     1.73895359
Si     6.83679102     6.59555040    15.56209828    -0.57840884    -0.34491342    -0.47053933
Si     6.84090115     1.28120291    21.07974452    -0.98053300     0.90633118    -0.55456007
Si     6.84935177     1.33269548    15.51236354    -0.23479506    -0.33122027    -0.51859087
Si     1.16799038     6.71117710    21.07040955     1.06758237    -0.05725811     0.10561386
Si     1.37294499     6.81682558    15.46303097     0.53637308    -0.76265192     0.15671894
Si     1.29029206     3.91678038    18.13402239     0.85756493     0.02352449     1.73831391
Si     1.34544680     1.14263915    21.01733290    -1.07764530     0.68114865     0.68950033
Si     5.40467291     5.32297464    19.59674915    -1.03803849    -0.18743695    -0.41532272
Si     5.31847111     5.30179194    14.12277545     0.46206272    -0.08750971     0.28714362
Si     5.32704495    10.69458156    19.78765886     0.39215761    -0.53824365    -0.46250221
Si     5.53671879    -0.15093591    14.00415984    -0.61158919     1.40458703     1.29765701
Si     0.12409688     5.38537398    19.57667929    -1.15228438    -0.46214974    -0.36904567
Si     0.15380124     5.31660924    14.24669576    -0.68021441     0.24551652    -1.15034485
Si    10.68140737    10.69366824    19.78333743     0.64450377    -0.75301689    -0.37114096
Si    10.71169310    10.59740379    14.08352969     1.84155345     2.23961926    -1.03279388
Si     6.56701273     9.17415433    18.23102254     0.21639517     0.67576909     0.30315128
Si     6.76570763     9.40670674    12.67125254     0.75870192    -2.01768732    -0.39044064
Si     6.78055264     4.02455240    18.33560192     0.49378330    -0.20010883    -0.87206900
Si     6.72350994     4.15851839    12.53897354     0.72089499    -0.57398438     0.94544119
Si     1.13602413     9.30021215    18.24009197     0.95190328     0.06940910     0.72835141
Si     1.26401027     1.29789920    15.47093010     0.27401364    -0.89584368    -0.01400552
Si     1.39031083     9.54654949    12.71595590     0.00258086    -0.31188920    -0.48865265
Si     5.25414935     7.84781309    16.75363858     0.51388961     0.68492007     0.24330151
Si     8.30501224     5.33775096    16.88675824    -1.59356141    -0.48324513     0.10425484
Si     8.19690070     2.73352768    19.63873649     0.07207130    -0.65868908     0.49940830
Si     8.21413971     2.78253938    14.12166952    -0.77202690     0.04749063    -0.26766467
Si     2.65786069     7.84497123    19.67417046    -0.72110391     0.60554957    -0.85079318
Si     2.66783190     8.18913345    14.08212863    -0.06475725    -0.20095240     0.15483406
Si     2.66471783     2.47434696    19.78643420    -0.44865602     1.52804315    -1.02398598
Si     2.81170701     2.43739123    14.02155443    -0.33551723     0.54669929    -0.00225563
Si     9.52348990     6.66274460    18.16903321     0.08886150     0.78025234     1.65576982
Si     9.62735877     6.75629654    12.70823793     0.27505982    -0.62976825    -0.17334309
Si     9.39574063     1.06043530    18.30678618    -0.32846400     1.09954882    -0.39881504
Si     9.59261708     1.46759556    12.80164605    -1.07271564    -1.26168585    -0.50597137
Si     3.92636214     6.55444460    18.12113866     0.73092568     0.51183575     1.31561065
Si     3.98390456     6.76707572    12.88046530     0.16935124    -0.75194120    -1.30515444
Si     4.08269673     1.36465671    18.44441041    -0.11022501    -1.24281025    -1.46991968
Si     3.88852962     4.10405265    20.92445892     1.09382772    -0.91525406     0.17209382
Si     3.99770400     3.78638674    15.58251411     0.21786071     0.70717007    -0.69143730
Si     8.23806715     5.39084419    11.18980089     0.05218226     0.63529807     0.57581401
Si     7.99799244    -0.26143021    16.80764100     0.04113218     0.84559041     0.77398825
Si     8.06514902    10.66669785    11.28072982     1.15616500     1.07304704     0.40275514
Si     2.64078908     5.27416561    16.87177428    -0.41372755    -0.49274632    -1.20167494
Si     2.75561250     5.30261122    11.22431801     0.66162193     0.49208248     0.03900772
Si     2.63164411    10.54092465    16.83179540    -0.04995498     1.49867880     0.83920395
Si     2.81053115    -0.03825863    11.20106332    -0.50315022     0.60807502    -0.43907049
Si     9.30814935     9.43189014    21.21841741     0.21926032    -0.52567917    -1.37885833
Si     9.42745482     9.47866825    15.36140465    -0.66743755    -2.36343288     1.65191436
Si     9.61272615     4.13851574    21.06521512    -0.09004929    -0.51754123    -0.47270870
Si     9.56824975     4.05335287    15.54469464     0.68062747    -0.98754036    -0.01523629
Si     3.93287111     9.17741714    21.02558603     0.65837657     0.95343792     0.96767640
Si     4.06442402     9.42892740    15.43970017     0.30759248    -0.46045426     0.01477121
Si     4.30704099     1.17137516    12.53932851    -0.86763930     0.50386941     0.48755252
Si     1.44999019     4.02641822    12.72408595    -0.01396646    -0.54047036    -0.02658586
Si     8.28239720     8.04431064     8.46222846    -0.30322903     0.82323265     0.16249757
Si     8.18489112     8.20478110     2.73279426    -0.58115304    -0.06956825     0.63531286
Si    10.75035529     8.12567176     5.53635486     1.15089917     0.93253058     0.16488978
Si     0.21912555     8.12525005    11.28575741    -0.86555922    -0.14810044    -0.39234835
Si     0.21834379     2.78990719     5.68668932    -1.26491094    -0.22094202    -0.98771971
Si    -0.02818073     2.69996376     0.02253672     0.62757528    -0.02196250    -1.43816304
Si     6.82115974     6.78722694     9.91117337     0.42727154     0.15268689    -0.00823716
Si     7.02619639     6.93828358     4.34706174    -0.81169820    -0.95848382    -0.21939015
Si     6.91142400     1.30346334     9.83996513    -0.33269814     0.36746478     0.39660406
Si     6.77632236     1.38276883     4.25335524     0.60095102     1.37139273    -0.55271518
Si     1.59920973     6.79908898     9.72172234    -1.04382515    -0.24870358     0.52772468
Si     1.37968568     6.88382393     4.32456061    -0.20125422    -0.78836036    -1.22914267
Si     1.37582077     1.46785643     9.69248999     0.05958346    -0.57737654     1.33465505
Si     1.31786604     1.37083815     4.02914664    -0.13423029    -0.02355037     0.91067010
Si     5.53354369     2.64546555     5.73835968     0.35516977     0.99553204    -0.46834022
Si     5.59767395     5.52836655     8.45962608    -0.48461866    -0.74116457    -0.96136284
Si     5.53527555    10.85722379     8.43362840    -0.30754089    -0.60588169    -0.55364984
Si     5.51296901     0.25068745     2.80775268    -0.77709430    -0.92661154    -0.84094632
Si     0.06776636     5.47163250     8.36124167     0.66342843     0.62529361     0.65225196
Si    -0.03072074     5.50207426     2.60563625     0.78389359     0.17263681     0.87832630
Si    10.96087770    10.75373681     8.43464589     0.03915759     0.27960274    -0.42712259
Si    10.76502432    10.92793978     2.62371015     0.92992175    -0.69190925     0.58334941
Si     7.01736952     9.55845958     7.01139183    -0.97529209    -0.59461325    -0.01193117
Si     6.63541559     9.38165623     1.50905522     0.65597874     1.04107499    -0.15459380
Si     7.03756649     3.99882578     7.13103560    -1.38403749    -0.26304632     0.59906065
Si     6.98445589     4.15488314     1.35976377    -0.68940753    -0.25400203    -0.02846145
Si     1.53869938     9.52961807     6.84948233    -2.36210251    -0.16469119     0.09458350
Si     1.11817062     9.46205676     1.25836679     0.86687076     0.06539489     1.26003098
Si     1.36419794     4.25483082     6.95638998     1.02887785    -0.68803769     0.32402682
Si     5.65962279     5.38882315     2.98288735    -0.84739923     0.29348943    -0.72776979
Si     5.31635243     7.98161061    11.30499554     0.53235120     0.50738800     0.06445841
Si     5.34343371     2.75774343    22.35181420     0.89735949     0.42294517     0.19420947
Si     5.40823626     8.20918661     5.51620363     1.11571336     0.34179151     0.36549759
Si     8.30872481     2.71234785     8.64573405     0.32902503     0.46398485    -0.62558460
Si     8.18757102     5.43637905     5.89026220     1.00975144     0.67142189    -1.73723006
Si     8.28596617     2.73103253     2.82356200    -0.09336320     0.47906321     0.11478340
Si     2.66176236     8.25043057     8.24900414     1.89375234    -1.30698514     0.43555737
Si     2.61127892     8.25356260     2.81718498     0.19661126    -0.53098947    -0.58016920
Si     2.70977648     2.77395316     8.32609480     0.82627302     0.08777198    -0.21262723
Si     2.73301462     2.59394447     2.74879618     0.20484638     1.21201563    -0.02528205
Si     9.67504729     6.81465372     7.05152448    -0.76209146    -0.09147112     0.12437717
Si     9.50893823     7.02878490     1.38099658     0.29612830    -1.51914716    -0.18227017
Si     9.64277573     1.51365177     7.13483085    -0.17705463    -0.77255893    -0.85092735
Si     9.54717365     1.39595494     1.24358962    -1.70498776     0.01464619     0.43417153
Si     4.16965077     6.71799017     6.73959857    -0.24857542     0.40958035     1.66559708
Si     3.85333942     6.67295121     1.36086226     1.24027622     0.28987867     1.37161911
Si     4.12254133     1.30440469     6.84285374    -0.58537936    -0.00078410     1.38714457
Si     4.06546421     1.42122029     1.30518809    -0.03958503    -0.66526991    -0.07847465
Si     8.35075739     5.60446963    -0.09202399    -1.04542756    -0.71983004     0.29834741
Si     4.11769041     3.93807606     4.28601833     0.69195861     0.02583670    -0.89944530
Si     8.15057210     0.13705158     5.45126788     1.64307046    -0.51965261     1.21813440
Si     8.00016782    10.72180293     0.01369487     0.09517005     0.38529843     1.21601748
Si     2.79409675     5.34463735     5.48285949    -0.45858845     0.78312606     0.27255499
Si     2.69250665     5.36518799    -0.12488827    -0.96761376     0.30680999     0.54323161
Si     2.71678241    10.79173646     5.43670548     0.53482437     0.70314240    -0.32677391
Si     2.58778910    -0.09295108     0.01158380     1.17767811     0.01746171    -0.29582310
Si     9.53907627     9.51951010     9.91418464     0.65354967    -0.92896545    -0.15852472
Si     9.56990772     9.50552836     3.98784463    -0.44693270     0.39052868     1.22419059
Si     9.74397928     4.22880759     9.83527505    -0.75759816    -1.12305498     0.63178766
Si     9.67955006     4.29308869     4.25326386    -0.54816651    -1.11932719     0.16735308
Si     4.12725685     9.38981151     9.77253297    -0.04128418     0.12705286    -0.16885370
Si     4.18212926     9.57256982     4.07906834    -0.54019004    -0.33908203     0.02191992
Si     4.30347049     4.00581543     9.75824461    -1.12013197     0.30284211     0.05953198
Si     8.17785488     7.86996853    14.18810070    -0.26713422     1.03027296    -1.06115913
Si     7.97532033     8.03293134    19.78483434     0.70686233    -0.23918974    -1.10004067
128
Lattice="10.919 0.000 0.000 0.000 10.873 0.000 0.000 0.000 22.033" Properties=species:S:1:pos:R:3:forces:R:3 energy=-687.02410889 virial="1.35841334 -5.46932030 6.32746506 -5.46932030 6.92886686 2.89361119 6.32746506 2.89361119 -9.43983364"
Si     1.26478893     4.12915015     1.42701307     0.09276989    -0.32697326    -0.43130881
Si     5.35381570     8.06954577    21.98086545     0.25584412     0.70774490     0.92147481
Si     5.39423290     2.54545466    16.59255007    -0.05243858     0.12942579    -0.42315173
Si     5.52699363     2.66160260    11.03153443    -0.18200773     0.42627415     0.22582960
Si    10.78325578     7.99772922    16.49932776     0.59495080    -0.25361115     0.47678092
Si    -0.07134664     8.21654373    21.92687614     0.05970101    -0.24222964     0.40373006
Si    -0.14568397     2.51818023    16.54791371     0.68737268     0.27111149     0.38813722
Si     0.13709670     2.66345851    11.02779533    -0.60020018     0.00346149     0.41958529
Si     6.73005692     6.80996066    20.67274162     0.05236105    -0.76086020    -0.67231727
Si     6.79549390     6.68261750    15.13296084     0.20061353     0.33263662     0.34325033
Si     6.73809393     1.35234932    20.63962039     0.04556805    -0.47721571     0.17095131
Si     6.86591112     1.29978930    15.19104389    -0.26430458     0.08772558     0.29685584
Si     1.25510503     6.73493549    20.62866194    -0.20532054     0.07528441     0.13605322
Si     1.39485884     6.70242834    15.18838638    -0.51621127     0.14101730    -0.23212439
Si     1.29317995     3.96231122    17.96488657    -0.70234150     0.16505298    -1.11300039
Si     1.20024541     1.27057797    20.71050253     0.76488882    -0.05998086    -0.83530533
Si     5.32326342     5.33674786    19.22898532     0.68018878     0.01028878     0.45253104
Si     5.44929917     5.31894181    13.89282697    -0.24749786     0.07526575    -0.81154257
Si     5.38271214    10.70919798    19.29915249    -0.29749030     0.66558492     0.19624674
Si     5.51448355    -0.02603840    13.90765781    -0.37136793    -0.67537093    -0.92005688
Si    -0.07884439     5.32761136    19.25724191     0.18455429     0.44877547     0.06666880
Si     0.00224194     5.42210647    13.75297647     0.38776752    -0.68108320     0.56079400
Si    10.87139786    10.67030303    19.25877055    -0.45410234     0.84593856     0.19046845
Si    10.98323256    10.88266067    13.83481876    -1.01337910    -1.10873914    -0.27616015
Si     6.60906816     9.30375865    17.96581221     0.54815084     0.12668785    -0.27297783
Si     6.86082205     9.40283953    12.37941335    -0.42485970     1.31482577     0.01001053
Si     6.78932278     3.91805224    17.88510637    -0.44193754     0.14770101     0.52891785
Si     6.87322639     4.08306648    12.45291125    -0.33134860     0.08655486    -0.48867792
Si     1.24572971     9.32045799    17.91718564    -0.25795317     0.43293560    -0.58600181
Si     1.34273162     1.28141852    15.19342201     0.03664210     0.44480747     0.04308522
Si     1.40135936     9.48637317    12.37614870    -0.13545945     0.06732555     0.27650845
Si     5.35470480     7.98025264    16.51361935    -0.09094802    -0.00525551     0.12078191
Si     8.08510464     5.30129615    16.58369687     0.63296217     0.25873199    -0.39543232
Si     8.19477333     2.60537931    19.29879049    -0.53596580     0.17152292    -0.16146070
Si     8.12456090     2.72294479    13.78514017     0.77894580    -0.49778852     0.38531262
Si     2.55990981     8.10343230    19.28135764     0.88767505    -0.29915023     0.47906160
Si     2.71357913     8.09504546    13.81059531     0.12971795    -0.05548706    -0.26426572
Si     2.61302648     2.65116708    19.17851875     0.52654451    -1.08092809     1.04736257
Si     2.73708538     2.58541217    13.76051560     0.05780745     0.06335093     0.20870334
Si     9.44952135     6.73146539    17.98881472     0.44456214    -0.86834109    -1.09900665
Si     9.65452265     6.78556256    12.42807942    -0.35598278     0.44840887     0.11720495
Si     9.38347999     1.17196182    17.91323393     0.63550168    -0.02481961     0.16579023
Si     9.51668831     1.29311744    12.45736515     0.81636393     0.68636596     0.06725290
Si     3.95607732     6.70471739    17.97816951    -0.07649791    -0.04443213    -0.69028687
Si     4.08603307     6.68991047    12.41496149     0.36371154     0.43652967     0.41121119
Si     3.95997202     1.11276323    17.82993711     0.50327277     0.95343411     1.00015378
Si     3.96472949     3.99991874    20.60369325    -0.13438286     0.36502576     0.29402709
Si     4.04859688     3.95890923    15.17298904     0.12462715    -0.27185667     0.18011789
Si     8.32660264     5.48546088    11.11064426    -0.49767143    -0.49014920    -0.44594371
Si     7.98647381    -0.19616757    16.65307754     0.50476342     0.03210069    -0.63860738
Si     8.28952269    10.87434222    11.05554686    -0.54576731    -0.58399808    -0.49763876
Si     2.64908134     5.27822713    16.52488496     0.19620001     0.16989724     0.40008706
Si     2.81375776     5.40253282    10.99771412    -0.41149402    -0.07690284     0.10814057
Si     2.54593203    10.76988893    16.58504192     0.34228641    -0.81743991    -0.55353642
Si     2.70496969    -0.03470535    10.93922708     0.68804222    -0.22049740     0.46577144
Si     9.38135490     9.45454359    20.57406284     0.12160429     0.30318290     0.65636837
Si     9.45334015     9.34147226    15.24942071     0.04982036     1.15300715    -0.73296297
Si     9.47017950     4.07304832    20.58779275    -0.22219361    -0.11168342     0.48836118