<UPF version="2.0.1">
  <PP_INFO>

 This pseudopotential file has been produced using the code
 ONCVPSP  (Optimized Norm-Conservinng Vanderbilt PSeudopotential)
 scalar-relativistic version 3.2.2 08/07/2015 by D. R. Hamann
 The code is available through a link at URL www.mat-simresearch.com.
 Documentation with the package provides a full discription of the
 input data below.


 While it is not required under the terms of the GNU GPL, it is
 suggested that you cite D. R. Hamann, Phys. Rev. B 88, 085117 (2013)
 in any publication using these pseudopotentials.

    <PP_INPUTFILE>
# ATOM AND REFERENCE CONFIGURATION
# atsym  z   nc   nv     iexc    psfile
  F  9.00    1    2       4      upf
#
#   n    l    f        energy (Ha)
    1    0    2.00
    2    0    2.00
    2    1    5.00
#
# PSEUDOPOTENTIAL AND OPTIMIZATION
# lmax
    1
#
#   l,   rc,     ep,   ncon, nbas, qcut
    0    1.60   -1.10    5    8    8.73
    1    1.68   -0.41    5    8    8.70
#
# LOCAL POTENTIAL
# lloc, lpopt,  rc(5),   dvloc0
    4    5      0.98       0.00
#
# VANDERBILT-KLEINMAN-BYLANDER PROJECTORs
# l, nproj, debl
    0    2    1.5112
    1    2    1.5317
#
# MODEL CORE CHARGE
# icmod, fcfact
    0    0.00
#
# LOG DERIVATIVE ANALYSIS
# epsh1, epsh2, depsh
   -5.00    3.00    0.02
#
# OUTPUT GRID
# rlmax, drl
    6.00    0.01
#
# TEST CONFIGURATIONS
# ncnf
    0
# nvcnf
#   n    l    f
    </PP_INPUTFILE>
  </PP_INFO>
  <!--                               -->
  <!-- END OF HUMAN READABLE SECTION -->
  <!--                               -->
    <PP_HEADER
       generated="Generated using ONCVPSP code by D. R. Hamann"
       author="anonymous"
       date="160823"
       comment=""
       element="F "
       pseudo_type="NC"
       relativistic="scalar"
       is_ultrasoft="F"
       is_paw="F"
       is_coulomb="F"
       has_so="F"
       has_wfc="F"
       has_gipaw="F"
       core_correction="F"
       functional="PBE"
       z_valence="    7.00"
       total_psenergy="  -4.74430236084E+01"
       wfc_cutoff="   5.00000000000E+01"
       r_cut="3.00"
       l_max="1"
       l_local="-1"
       mesh_size="   832"
       number_of_wfc="2"
       number_of_proj="4"/>
 <PP_MESH>
   <PP_R type="real"  size=" 832" columns="8">
    0.0000    0.0100    0.0200    0.0300    0.0400    0.0500    0.0600    0.0700
    0.0800    0.0900    0.1000    0.1100    0.1200    0.1300    0.1400    0.1500
    0.1600    0.1700    0.1800    0.1900    0.2000    0.2100    0.2200    0.2300
    0.2400    0.2500    0.2600    0.2700    0.2800    0.2900    0.3000    0.3100
    0.3200    0.3300    0.3400    0.3500    0.3600    0.3700    0.3800    0.3900
    0.4000    0.4100    0.4200    0.4300    0.4400    0.4500    0.4600    0.4700
    0.4800    0.4900    0.5000    0.5100    0.5200    0.5300    0.5400    0.5500
    0.5600    0.5700    0.5800    0.5900    0.6000    0.6100    0.6200    0.6300
    0.6400    0.6500    0.6600    0.6700    0.6800    0.6900    0.7000    0.7100
    0.7200    0.7300    0.7400    0.7500    0.7600    0.7700    0.7800    0.7900
    0.8000    0.8100    0.8200    0.8300    0.8400    0.8500    0.8600    0.8700
    0.8800    0.8900    0.9000    0.9100    0.9200    0.9300    0.9400    0.9500
    0.9600    0.9700    0.9800    0.9900    1.0000    1.0100    1.0200    1.0300
    1.0400    1.0500    1.0600    1.0700    1.0800    1.0900    1.1000    1.1100
    1.1200    1.1300    1.1400    1.1500    1.1600    1.1700    1.1800    1.1900
    1.2000    1.2100    1.2200    1.2300    1.2400    1.2500    1.2600    1.2700
    1.2800    1.2900    1.3000    1.3100    1.3200    1.3300    1.3400    1.3500
    1.3600    1.3700    1.3800    1.3900    1.4000    1.4100    1.4200    1.4300
    1.4400    1.4500    1.4600    1.4700    1.4800    1.4900    1.5000    1.5100
    1.5200    1.5300    1.5400    1.5500    1.5600    1.5700    1.5800    1.5900
    1.6000    1.6100    1.6200    1.6300    1.6400    1.6500    1.6600    1.6700
    1.6800    1.6900    1.7000    1.7100    1.7200    1.7300    1.7400    1.7500
    1.7600    1.7700    1.7800    1.7900    1.8000    1.8100    1.8200    1.8300
    1.8400    1.8500    1.8600    1.8700    1.8800    1.8900    1.9000    1.9100
    1.9200    1.9300    1.9400    1.9500    1.9600    1.9700    1.9800    1.9900
    2.0000    2.0100    2.0200    2.0300    2.0400    2.0500    2.0600    2.0700
    2.0800    2.0900    2.1000    2.1100    2.1200    2.1300    2.1400    2.1500
    2.1600    2.1700    2.1800    2.1900    2.2000    2.2100    2.2200    2.2300
    2.2400    2.2500    2.2600    2.2700    2.2800    2.2900    2.3000    2.3100
    2.3200    2.3300    2.3400    2.3500    2.3600    2.3700    2.3800    2.3900
    2.4000    2.4100    2.4200    2.4300    2.4400    2.4500    2.4600    2.4700
    2.4800    2.4900    2.5000    2.5100    2.5200    2.5300    2.5400    2.5500
    2.5600    2.5700    2.5800    2.5900    2.6000    2.6100    2.6200    2.6300
    2.6400    2.6500    2.6600    2.6700    2.6800    2.6900    2.7000    2.7100
    2.7200    2.7300    2.7400    2.7500    2.7600    2.7700    2.7800    2.7900
    2.8000    2.8100    2.8200    2.8300    2.8400    2.8500    2.8600    2.8700
    2.8800    2.8900    2.9000    2.9100    2.9200    2.9300    2.9400    2.9500
    2.9600    2.9700    2.9800    2.9900    3.0000    3.0100    3.0200    3.0300
    3.0400    3.0500    3.0600    3.0700    3.0800    3.0900    3.1000    3.1100
    3.1200    3.1300    3.1400    3.1500    3.1600    3.1700    3.1800    3.1900
    3.2000    3.2100    3.2200    3.2300    3.2400    3.2500    3.2600    3.2700
    3.2800    3.2900    3.3000    3.3100    3.3200    3.3300    3.3400    3.3500
    3.3600    3.3700    3.3800    3.3900    3.4000    3.4100    3.4200    3.4300
    3.4400    3.4500    3.4600    3.4700    3.4800    3.4900    3.5000    3.5100
    3.5200    3.5300    3.5400    3.5500    3.5600    3.5700    3.5800    3.5900
    3.6000    3.6100    3.6200    3.6300    3.6400    3.6500    3.6600    3.6700
    3.6800    3.6900    3.7000    3.7100    3.7200    3.7300    3.7400    3.7500
    3.7600    3.7700    3.7800    3.7900    3.8000    3.8100    3.8200    3.8300
    3.8400    3.8500    3.8600    3.8700    3.8800    3.8900    3.9000    3.9100
    3.9200    3.9300    3.9400    3.9500    3.9600    3.9700    3.9800    3.9900
    4.0000    4.0100    4.0200    4.0300    4.0400    4.0500    4.0600    4.0700
    4.0800    4.0900    4.1000    4.1100    4.1200    4.1300    4.1400    4.1500
    4.1600    4.1700    4.1800    4.1900    4.2000    4.2100    4.2200    4.2300
    4.2400    4.2500    4.2600    4.2700    4.2800    4.2900    4.3000    4.3100
    4.3200    4.3300    4.3400    4.3500    4.3600    4.3700    4.3800    4.3900
    4.4000    4.4100    4.4200    4.4300    4.4400    4.4500    4.4600    4.4700
    4.4800    4.4900    4.5000    4.5100    4.5200    4.5300    4.5400    4.5500
    4.5600    4.5700    4.5800    4.5900    4.6000    4.6100    4.6200    4.6300
    4.6400    4.6500    4.6600    4.6700    4.6800    4.6900    4.7000    4.7100
    4.7200    4.7300    4.7400    4.7500    4.7600    4.7700    4.7800    4.7900
    4.8000    4.8100    4.8200    4.8300    4.8400    4.8500    4.8600    4.8700
    4.8800    4.8900    4.9000    4.9100    4.9200    4.9300    4.9400    4.9500
    4.9600    4.9700    4.9800    4.9900    5.0000    5.0100    5.0200    5.0300
    5.0400    5.0500    5.0600    5.0700    5.0800    5.0900    5.1000    5.1100
    5.1200    5.1300    5.1400    5.1500    5.1600    5.1700    5.1800    5.1900
    5.2000    5.2100    5.2200    5.2300    5.2400    5.2500    5.2600    5.2700
    5.2800    5.2900    5.3000    5.3100    5.3200    5.3300    5.3400    5.3500
    5.3600    5.3700    5.3800    5.3900    5.4000    5.4100    5.4200    5.4300
    5.4400    5.4500    5.4600    5.4700    5.4800    5.4900    5.5000    5.5100
    5.5200    5.5300    5.5400    5.5500    5.5600    5.5700    5.5800    5.5900
    5.6000    5.6100    5.6200    5.6300    5.6400    5.6500    5.6600    5.6700
    5.6800    5.6900    5.7000    5.7100    5.7200    5.7300    5.7400    5.7500
    5.7600    5.7700    5.7800    5.7900    5.8000    5.8100    5.8200    5.8300
    5.8400    5.8500    5.8600    5.8700    5.8800    5.8900    5.9000    5.9100
    5.9200    5.9300    5.9400    5.9500    5.9600    5.9700    5.9800    5.9900
    6.0000    6.0100    6.0200    6.0300    6.0400    6.0500    6.0600    6.0700
    6.0800    6.0900    6.1000    6.1100    6.1200    6.1300    6.1400    6.1500
    6.1600    6.1700    6.1800    6.1900    6.2000    6.2100    6.2200    6.2300
    6.2400    6.2500    6.2600    6.2700    6.2800    6.2900    6.3000    6.3100
    6.3200    6.3300    6.3400    6.3500    6.3600    6.3700    6.3800    6.3900
    6.4000    6.4100    6.4200    6.4300    6.4400    6.4500    6.4600    6.4700
    6.4800    6.4900    6.5000    6.5100    6.5200    6.5300    6.5400    6.5500
    6.5600    6.5700    6.5800    6.5900    6.6000    6.6100    6.6200    6.6300
    6.6400    6.6500    6.6600    6.6700    6.6800    6.6900    6.7000    6.7100
    6.7200    6.7300    6.7400    6.7500    6.7600    6.7700    6.7800    6.7900
    6.8000    6.8100    6.8200    6.8300    6.8400    6.8500    6.8600    6.8700
    6.8800    6.8900    6.9000    6.9100    6.9200    6.9300    6.9400    6.9500
    6.9600    6.9700    6.9800    6.9900    7.0000    7.0100    7.0200    7.0300
    7.0400    7.0500    7.0600    7.0700    7.0800    7.0900    7.1000    7.1100
    7.1200    7.1300    7.1400    7.1500    7.1600    7.1700    7.1800    7.1900
    7.2000    7.2100    7.2200    7.2300    7.2400    7.2500    7.2600    7.2700
    7.2800    7.2900    7.3000    7.3100    7.3200    7.3300    7.3400    7.3500
    7.3600    7.3700    7.3800    7.3900    7.4000    7.4100    7.4200    7.4300
    7.4400    7.4500    7.4600    7.4700    7.4800    7.4900    7.5000    7.5100
    7.5200    7.5300    7.5400    7.5500    7.5600    7.5700    7.5800    7.5900
    7.6000    7.6100    7.6200    7.6300    7.6400    7.6500    7.6600    7.6700
    7.6800    7.6900    7.7000    7.7100    7.7200    7.7300    7.7400    7.7500
    7.7600    7.7700    7.7800    7.7900    7.8000    7.8100    7.8200    7.8300
    7.8400    7.8500    7.8600    7.8700    7.8800    7.8900    7.9000    7.9100
    7.9200    7.9300    7.9400    7.9500    7.9600    7.9700    7.9800    7.9900
    8.0000    8.0100    8.0200    8.0300    8.0400    8.0500    8.0600    8.0700
    8.0800    8.0900    8.1000    8.1100    8.1200    8.1300    8.1400    8.1500
    8.1600    8.1700    8.1800    8.1900    8.2000    8.2100    8.2200    8.2300
    8.2400    8.2500    8.2600    8.2700    8.2800    8.2900    8.3000    8.3100
   </PP_R>
   <PP_RAB type="real"  size=" 832" columns="8">
    0.0100    0.0100    0.0100    0.0100    0.0100    0.0100    0.0100    0.0100
    0.0100    0.0100    0.0100    0.0100    0.0100    0.0100    0.0100    0.0100
    0.0100    0.0100    0.0100    0.0100    0.0100    0.0100    0.0100    0.0100
    0.0100    0.0100    0.0100    0.0100    0.0100    0.0100    0.0100    0.0100
    0.0100    0.0100    0.0100    0.0100    0.0100    0.0100    0.0100    0.0100
    0.0100    0.0100    0.0100    0.0100    0.0100    0.0100    0.0100    0.0100
    0.0100    0.0100    0.0100    0.0100    0.0100    0.0100    0.0100    0.0100
    0.0100    0.0100    0.0100    0.0100    0.0100    0.0100    0.0100    0.0100
    0.0100    0.0100    0.0100    0.0100    0.0100    0.0100    0.0100    0.0100
    0.0100    0.0100    0.0100    0.0100    0.0100    0.0100    0.0100    0.0100
    0.0100    0.0100    0.0100    0.0100    0.0100    0.0100    0.0100    0.0100
    0.0100    0.0100    0.0100    0.0100    0.0100    0.0100    0.0100    0.0100
    0.0100    0.0100    0.0100    0.0100    0.0100    0.0100    0.0100    0.0100
    0.0100    0.0100    0.0100    0.0100    0.0100    0.0100    0.0100    0.0100
    0.0100    0.0100    0.0100    0.0100    0.0100    0.0100    0.0100    0.0100
    0.0100    0.0100    0.0100    0.0100    0.0100    0.0100    0.0100    0.0100
    0.0100    0.0100    0.0100    0.0100    0.0100    0.0100    0.0100    0.0100
    0.0100    0.0100    0.0100    0.0100    0.0100    0.0100    0.0100    0.0100
    0.0100    0.0100    0.0100    0.0100    0.0100    0.0100    0.0100    0.0100
    0.0100    0.0100    0.0100    0.0100    0.0100    0.0100    0.0100    0.0100
    0.0100    0.0100    0.0100    0.0100    0.0100    0.0100    0.0100    0.0100
    0.0100    0.0100    0.0100    0.0100    0.0100    0.0100    0.0100    0.0100
    0.0100    0.0100    0.0100    0.0100    0.0100    0.0100    0.0100    0.0100
    0.0100    0.0100    0.0100    0.0100    0.0100    0.0100    0.0100    0.0100
    0.0100    0.0100    0.0100    0.0100    0.0100    0.0100    0.0100    0.0100
    0.0100    0.0100    0.0100    0.0100    0.0100    0.0100    0.0100    0.0100
    0.0100    0.0100    0.0100    0.0100    0.0100    0.0100    0.0100    0.0100
    0.0100    0.0100    0.0100    0.0100    0.0100    0.0100    0.0100    0.0100
    0.0100    0.0100    0.0100    0.0100    0.0100    0.0100    0.0100    0.0100
    0.0100    0.0100    0.0100    0.0100    0.0100    0.0100    0.0100    0.0100
    0.0100    0.0100    0.0100    0.0100    0.0100    0.0100    0.0100    0.0100
    0.0100    0.0100    0.0100    0.0100    0.0100    0.0100    0.0100    0.0100
    0.0100    0.0100    0.0100    0.0100    0.0100    0.0100    0.0100    0.0100
    0.0100    0.0100    0.0100    0.0100    0.0100    0.0100    0.0100    0.0100
    0.0100    0.0100    0.0100    0.0100    0.0100    0.0100    0.0100    0.0100
    0.0100    0.0100    0.0100    0.0100    0.0100    0.0100    0.0100    0.0100
    0.0100    0.0100    0.0100    0.0100    0.0100    0.0100    0.0100    0.0100
    0.0100    0.0100    0.0100    0.0100    0.0100    0.0100    0.0100    0.0100
    0.0100    0.0100    0.0100    0.0100    0.0100    0.0100    0.0100    0.0100
    0.0100    0.0100    0.0100    0.0100    0.0100    0.0100    0.0100    0.0100
    0.0100    0.0100    0.0100    0.0100    0.0100    0.0100    0.0100    0.0100
    0.0100    0.0100    0.0100    0.0100    0.0100    0.0100    0.0100    0.0100
    0.0100    0.0100    0.0100    0.0100    0.0100    0.0100    0.0100    0.0100
    0.0100    0.0100    0.0100    0.0100    0.0100    0.0100    0.0100    0.0100
    0.0100    0.0100    0.0100    0.0100    0.0100    0.0100    0.0100    0.0100
    0.0100    0.0100    0.0100    0.0100    0.0100    0.0100    0.0100    0.0100
    0.0100    0.0100    0.0100    0.0100    0.0100    0.0100    0.0100    0.0100
    0.0100    0.0100    0.0100    0.0100    0.0100    0.0100    0.0100    0.0100
    0.0100    0.0100    0.0100    0.0100    0.0100    0.0100    0.0100    0.0100
    0.0100    0.0100    0.0100    0.0100    0.0100    0.0100    0.0100    0.0100
    0.0100    0.0100    0.0100    0.0100    0.0100    0.0100    0.0100    0.0100
    0.0100    0.0100    0.0100    0.0100    0.0100    0.0100    0.0100    0.0100
    0.0100    0.0100    0.0100    0.0100    0.0100    0.0100    0.0100    0.0100
    0.0100    0.0100    0.0100    0.0100    0.0100    0.0100    0.0100    0.0100
    0.0100    0.0100    0.0100    0.0100    0.0100    0.0100    0.0100    0.0100
    0.0100    0.0100    0.0100    0.0100    0.0100    0.0100    0.0100    0.0100
    0.0100    0.0100    0.0100    0.0100    0.0100    0.0100    0.0100    0.0100
    0.0100    0.0100    0.0100    0.0100    0.0100    0.0100    0.0100    0.0100
    0.0100    0.0100    0.0100    0.0100    0.0100    0.0100    0.0100    0.0100
    0.0100    0.0100    0.0100    0.0100    0.0100    0.0100    0.0100    0.0100
    0.0100    0.0100    0.0100    0.0100    0.0100    0.0100    0.0100    0.0100
    0.0100    0.0100    0.0100    0.0100    0.0100    0.0100    0.0100    0.0100
    0.0100    0.0100    0.0100    0.0100    0.0100    0.0100    0.0100    0.0100
    0.0100    0.0100    0.0100    0.0100    0.0100    0.0100    0.0100    0.0100
    0.0100    0.0100    0.0100    0.0100    0.0100    0.0100    0.0100    0.0100
    0.0100    0.0100    0.0100    0.0100    0.0100    0.0100    0.0100    0.0100
    0.0100    0.0100    0.0100    0.0100    0.0100    0.0100    0.0100    0.0100
    0.0100    0.0100    0.0100    0.0100    0.0100    0.0100    0.0100    0.0100
    0.0100    0.0100    0.0100    0.0100    0.0100    0.0100    0.0100    0.0100
    0.0100    0.0100    0.0100    0.0100    0.0100    0.0100    0.0100    0.0100
    0.0100    0.0100    0.0100    0.0100    0.0100    0.0100    0.0100    0.0100
    0.0100    0.0100    0.0100    0.0100    0.0100    0.0100    0.0100    0.0100
    0.0100    0.0100    0.0100    0.0100    0.0100    0.0100    0.0100    0.0100
    0.0100    0.0100    0.0100    0.0100    0.0100    0.0100    0.0100    0.0100
    0.0100    0.0100    0.0100    0.0100    0.0100    0.0100    0.0100    0.0100
    0.0100    0.0100    0.0100    0.0100    0.0100    0.0100    0.0100    0.0100
    0.0100    0.0100    0.0100    0.0100    0.0100    0.0100    0.0100    0.0100
    0.0100    0.0100    0.0100    0.0100    0.0100    0.0100    0.0100    0.0100
    0.0100    0.0100    0.0100    0.0100    0.0100    0.0100    0.0100    0.0100
    0.0100    0.0100    0.0100    0.0100    0.0100    0.0100    0.0100    0.0100
    0.0100    0.0100    0.0100    0.0100    0.0100    0.0100    0.0100    0.0100
    0.0100    0.0100    0.0100    0.0100    0.0100    0.0100    0.0100    0.0100
    0.0100    0.0100    0.0100    0.0100    0.0100    0.0100    0.0100    0.0100
    0.0100    0.0100    0.0100    0.0100    0.0100    0.0100    0.0100    0.0100
    0.0100    0.0100    0.0100    0.0100    0.0100    0.0100    0.0100    0.0100
    0.0100    0.0100    0.0100    0.0100    0.0100    0.0100    0.0100    0.0100
    0.0100    0.0100    0.0100    0.0100    0.0100    0.0100    0.0100    0.0100
    0.0100    0.0100    0.0100    0.0100    0.0100    0.0100    0.0100    0.0100
    0.0100    0.0100    0.0100    0.0100    0.0100    0.0100    0.0100    0.0100
    0.0100    0.0100    0.0100    0.0100    0.0100    0.0100    0.0100    0.0100
    0.0100    0.0100    0.0100    0.0100    0.0100    0.0100    0.0100    0.0100
    0.0100    0.0100    0.0100    0.0100    0.0100    0.0100    0.0100    0.0100
    0.0100    0.0100    0.0100    0.0100    0.0100    0.0100    0.0100    0.0100
    0.0100    0.0100    0.0100    0.0100    0.0100    0.0100    0.0100    0.0100
    0.0100    0.0100    0.0100    0.0100    0.0100    0.0100    0.0100    0.0100
    0.0100    0.0100    0.0100    0.0100    0.0100    0.0100    0.0100    0.0100
    0.0100    0.0100    0.0100    0.0100    0.0100    0.0100    0.0100    0.0100
    0.0100    0.0100    0.0100    0.0100    0.0100    0.0100    0.0100    0.0100
    0.0100    0.0100    0.0100    0.0100    0.0100    0.0100    0.0100    0.0100
    0.0100    0.0100    0.0100    0.0100    0.0100    0.0100    0.0100    0.0100
    0.0100    0.0100    0.0100    0.0100    0.0100    0.0100    0.0100    0.0100
    0.0100    0.0100    0.0100    0.0100    0.0100    0.0100    0.0100    0.0100
    0.0100    0.0100    0.0100    0.0100    0.0100    0.0100    0.0100    0.0100
    0.0100    0.0100    0.0100    0.0100    0.0100    0.0100    0.0100    0.0100
   </PP_RAB>
 </PP_MESH>
  <PP_LOCAL type="real"  size=" 832" columns="4">
   -3.1156245009E+01   -3.1204178123E+01   -3.1332439149E+01   -3.1486627905E+01
   -3.1618592418E+01   -3.1701974445E+01   -3.1731057083E+01   -3.1711854370E+01
   -3.1654382754E+01   -3.1568411908E+01   -3.1461848084E+01   -3.1340498376E+01
   -3.1208386649E+01   -3.1068203430E+01   -3.0921717037E+01   -3.0770093373E+01
   -3.0614123025E+01   -3.0454372228E+01   -3.0291277536E+01   -3.0125201673E+01
   -2.9956464094E+01   -2.9785355938E+01   -2.9612145940E+01   -2.9437081469E+01
   -2.9260387194E+01   -2.9082262766E+01   -2.8902880161E+01   -2.8722380963E+01
   -2.8540873624E+01   -2.8358430729E+01   -2.8175086314E+01   -2.7990833377E+01
   -2.7805621872E+01   -2.7619357561E+01   -2.7431902202E+01   -2.7243075590E+01
   -2.7052659885E+01   -2.6860406567E+01   -2.6666046092E+01   -2.6469300026E+01
   -2.6269895100E+01   -2.6067578299E+01   -2.5862131835E+01   -2.5653386766E+01
   -2.5441234051E+01   -2.5225632088E+01   -2.5006610140E+01   -2.4784267491E+01
   -2.4558768671E+01   -2.4330335428E+01   -2.4099236413E+01   -2.3865775632E+01
   -2.3630280700E+01   -2.3393091749E+01   -2.3154551653E+01   -2.2914997949E+01
   -2.2674756630E+01   -2.2434137766E+01   -2.2193432791E+01   -2.1952913196E+01
   -2.1712830326E+01   -2.1473416009E+01   -2.1234883727E+01   -2.0997430121E+01
   -2.0761236642E+01   -2.0526471205E+01   -2.0293289771E+01   -2.0061837774E+01
   -1.9832251375E+01   -1.9604658521E+01   -1.9379179810E+01   -1.9155929183E+01
   -1.8935014437E+01   -1.8716537601E+01   -1.8500595186E+01   -1.8287278318E+01
   -1.8076672794E+01   -1.7868859052E+01   -1.7663912095E+01   -1.7461901360E+01
   -1.7262890556E+01   -1.7066937472E+01   -1.6874093769E+01   -1.6684404753E+01
   -1.6497909143E+01   -1.6314638829E+01   -1.6134618627E+01   -1.5957866032E+01
   -1.5784390969E+01   -1.5614195545E+01   -1.5447273796E+01   -1.5283611435E+01
   -1.5123185604E+01   -1.4965964611E+01   -1.4811907677E+01   -1.4660964670E+01
   -1.4513075844E+01   -1.4368171549E+01   -1.4226172066E+01   -1.4086986951E+01
   -1.3950520152E+01   -1.3816677216E+01   -1.3685368493E+01   -1.3556508345E+01
   -1.3430015141E+01   -1.3305811096E+01   -1.3183822116E+01   -1.3063977653E+01
   -1.2946210560E+01   -1.2830456955E+01   -1.2716656078E+01   -1.2604750170E+01
   -1.2494684335E+01   -1.2386406429E+01   -1.2279866931E+01   -1.2175018839E+01
   -1.2071817553E+01   -1.1970220778E+01   -1.1870188415E+01   -1.1771682469E+01
   -1.1674666952E+01   -1.1579107790E+01   -1.1484972729E+01   -1.1392231249E+01
   -1.1300854473E+01   -1.1210815069E+01   -1.1122087169E+01   -1.1034646264E+01
   -1.0948469117E+01   -1.0863533658E+01   -1.0779818892E+01   -1.0697304787E+01
   -1.0615972180E+01   -1.0535802667E+01   -1.0456778497E+01   -1.0378882472E+01
   -1.0302097843E+01   -1.0226408208E+01   -1.0151797421E+01   -1.0078249501E+01
   -1.0005748546E+01   -9.9342786638E+00   -9.8638239056E+00   -9.7943682097E+00
   -9.7258953599E+00   -9.6583889541E+00   -9.5918323844E+00   -9.5262088314E+00
   -9.4615012688E+00   -9.3976924805E+00   -9.3347650889E+00   -9.2727015918E+00
   -9.2114844093E+00   -9.1510959365E+00   -9.0915186030E+00   -9.0327349351E+00
   -8.9747276210E+00   -8.9174795768E+00   -8.8609740064E+00   -8.8051944668E+00
   -8.7501249205E+00   -8.6957498022E+00   -8.6420541153E+00   -8.5890234591E+00
   -8.5366440223E+00   -8.4849025801E+00   -8.4337864656E+00   -8.3832835685E+00
   -8.3333823267E+00   -8.2840716911E+00   -8.2353411374E+00   -8.1871805411E+00
   -8.1395799964E+00   -8.0925298034E+00   -8.0460204595E+00   -8.0000426574E+00
   -7.9545873266E+00   -7.9096456225E+00   -7.8652088926E+00   -7.8212686707E+00
   -7.7778166807E+00   -7.7348448305E+00   -7.6923452056E+00   -7.6503100644E+00
   -7.6087318337E+00   -7.5676031038E+00   -7.5269166245E+00   -7.4866653009E+00
   -7.4468421887E+00   -7.4074404909E+00   -7.3684535533E+00   -7.3298748613E+00
   -7.2916980359E+00   -7.2539168303E+00   -7.2165251267E+00   -7.1795169325E+00
   -7.1428863776E+00   -7.1066277111E+00   -7.0707352982E+00   -7.0352036174E+00
   -7.0000272576E+00   -6.9652009155E+00   -6.9307193928E+00   -6.8965775934E+00
   -6.8627705215E+00   -6.8292932784E+00   -6.7961410609E+00   -6.7633091583E+00
   -6.7307929507E+00   -6.6985879065E+00   -6.6666895806E+00   -6.6350936118E+00
   -6.6037957216E+00   -6.5727917117E+00   -6.5420774622E+00   -6.5116489299E+00
   -6.4815021465E+00   -6.4516332168E+00   -6.4220383171E+00   -6.3927136936E+00
   -6.3636556607E+00   -6.3348605994E+00   -6.3063249562E+00   -6.2780452410E+00
   -6.2500180263E+00   -6.2222399454E+00   -6.1947076911E+00   -6.1674180146E+00
   -6.1403677241E+00   -6.1135536836E+00   -6.0869728117E+00   -6.0606220801E+00
   -6.0344985128E+00   -6.0085991848E+00   -5.9829212213E+00   -5.9574617964E+00
   -5.9322181323E+00   -5.9071874976E+00   -5.8823672071E+00   -5.8577546205E+00
   -5.8333471414E+00   -5.8091422167E+00   -5.7851373354E+00   -5.7613300278E+00
   -5.7377178647E+00   -5.7142984566E+00   -5.6910694527E+00   -5.6680285405E+00
   -5.6451734447E+00   -5.6225019265E+00   -5.6000117830E+00   -5.5777008462E+00
   -5.5555669829E+00   -5.5336080933E+00   -5.5118221108E+00   -5.4902070012E+00
   -5.4687607619E+00   -5.4474814219E+00   -5.4263670403E+00   -5.4054157065E+00
   -5.3846255390E+00   -5.3639946855E+00   -5.3435213217E+00   -5.3232036510E+00
   -5.3030399043E+00   -5.2830283390E+00   -5.2631672387E+00   -5.2434549129E+00
   -5.2238896960E+00   -5.2044699475E+00   -5.1851940510E+00   -5.1660604141E+00
   -5.1470674676E+00   -5.1282136656E+00   -5.1094974845E+00   -5.0909174229E+00
   -5.0724720013E+00   -5.0541597615E+00   -5.0359792662E+00   -5.0179290988E+00
   -5.0000078630E+00   -4.9822141821E+00   -4.9645466992E+00   -4.9470040765E+00
   -4.9295849950E+00   -4.9122881542E+00   -4.8951122719E+00   -4.8780560837E+00
   -4.8611183428E+00   -4.8442978195E+00   -4.8275933012E+00   -4.8110035921E+00
   -4.7945275124E+00   -4.7781638988E+00   -4.7619116036E+00   -4.7457694947E+00
   -4.7297364553E+00   -4.7138113838E+00   -4.6979931931E+00   -4.6822808109E+00
   -4.6666731790E+00   -4.6511692534E+00   -4.6357680039E+00   -4.6204684138E+00
   -4.6052694800E+00   -4.5901702122E+00   -4.5751696335E+00   -4.5602667793E+00
   -4.5454606977E+00   -4.5307504493E+00   -4.5161351066E+00   -4.5016137540E+00
   -4.4871854878E+00   -4.4728494158E+00   -4.4586046570E+00   -4.4444503419E+00
   -4.4303856118E+00   -4.4164096188E+00   -4.4025215257E+00   -4.3887205060E+00
   -4.3750057432E+00   -4.3613764313E+00   -4.3478317740E+00   -4.3343709850E+00
   -4.3209932879E+00   -4.3076979156E+00   -4.2944841104E+00   -4.2813511240E+00
   -4.2682982173E+00   -4.2553246599E+00   -4.2424297306E+00   -4.2296127166E+00
   -4.2168729138E+00   -4.2042096268E+00   -4.1916221681E+00   -4.1791098587E+00
   -4.1666720277E+00   -4.1543080119E+00   -4.1420171562E+00   -4.1297988132E+00
   -4.1176523430E+00   -4.1055771134E+00   -4.0935724993E+00   -4.0816378831E+00
   -4.0697726544E+00   -4.0579762097E+00   -4.0462479528E+00   -4.0345872940E+00
   -4.0229936506E+00   -4.0114664465E+00   -4.0000051123E+00   -3.9886090848E+00
   -3.9772778076E+00   -3.9660107304E+00   -3.9548073090E+00   -3.9436670055E+00
   -3.9325892880E+00   -3.9215736306E+00   -3.9106195131E+00   -3.8997264214E+00
   -3.8888938469E+00   -3.8781212867E+00   -3.8674082433E+00   -3.8567542249E+00
   -3.8461587451E+00   -3.8356213227E+00   -3.8251414818E+00   -3.8147187516E+00
   -3.8043526667E+00   -3.7940427665E+00   -3.7837885954E+00   -3.7735897028E+00
   -3.7634456429E+00   -3.7533559746E+00   -3.7433202617E+00   -3.7333380726E+00
   -3.7234089800E+00   -3.7135325617E+00   -3.7037083994E+00   -3.6939360795E+00
   -3.6842151929E+00   -3.6745453344E+00   -3.6649261033E+00   -3.6553571031E+00
   -3.6458379413E+00   -3.6363682296E+00   -3.6269475836E+00   -3.6175756231E+00
   -3.6082519715E+00   -3.5989762563E+00   -3.5897481087E+00   -3.5805671639E+00
   -3.5714330604E+00   -3.5623454408E+00   -3.5533039512E+00   -3.5443082411E+00
   -3.5353579638E+00   -3.5264527759E+00   -3.5175923375E+00   -3.5087763123E+00
   -3.5000043671E+00   -3.4912761721E+00   -3.4825914008E+00   -3.4739497300E+00
   -3.4653508396E+00   -3.4567944128E+00   -3.4482801357E+00   -3.4398076977E+00
   -3.4313767911E+00   -3.4229871114E+00   -3.4146383567E+00   -3.4063302285E+00
   -3.3980624309E+00   -3.3898346710E+00   -3.3816466585E+00   -3.3734981063E+00
   -3.3653887296E+00   -3.3573182468E+00   -3.3492863785E+00   -3.3412928485E+00
   -3.3333373827E+00   -3.3254197100E+00   -3.3175395618E+00   -3.3096966718E+00
   -3.3018907764E+00   -3.2941216146E+00   -3.2863889276E+00   -3.2786924592E+00
   -3.2710319555E+00   -3.2634071650E+00   -3.2558178386E+00   -3.2482637293E+00
   -3.2407445927E+00   -3.2332601864E+00   -3.2258102703E+00   -3.2183946067E+00
   -3.2110129597E+00   -3.2036650960E+00   -3.1963507841E+00   -3.1890697946E+00
   -3.1818219006E+00   -3.1746068766E+00   -3.1674244998E+00   -3.1602745490E+00
   -3.1531568051E+00   -3.1460710510E+00   -3.1390170715E+00   -3.1319946533E+00
   -3.1250035851E+00   -3.1180436575E+00   -3.1111146629E+00   -3.1042163954E+00
   -3.0973486512E+00   -3.0905112280E+00   -3.0837039256E+00   -3.0769265454E+00
   -3.0701788904E+00   -3.0634607656E+00   -3.0567719776E+00   -3.0501123345E+00
   -3.0434816464E+00   -3.0368797247E+00   -3.0303063827E+00   -3.0237614353E+00
   -3.0172446988E+00   -3.0107559912E+00   -3.0042951321E+00   -2.9978619426E+00
   -2.9914562453E+00   -2.9850778643E+00   -2.9787266254E+00   -2.9724023556E+00
   -2.9661048835E+00   -2.9598340392E+00   -2.9535896541E+00   -2.9473715611E+00
   -2.9411795945E+00   -2.9350135900E+00   -2.9288733847E+00   -2.9227588169E+00
   -2.9166697265E+00   -2.9106059545E+00   -2.9045673433E+00   -2.8985537368E+00
   -2.8925649798E+00   -2.8866009187E+00   -2.8806614010E+00   -2.8747462756E+00
   -2.8688553925E+00   -2.8629886030E+00   -2.8571457595E+00   -2.8513267158E+00
   -2.8455313267E+00   -2.8397594483E+00   -2.8340109378E+00   -2.8282856536E+00
   -2.8225834552E+00   -2.8169042033E+00   -2.8112477596E+00   -2.8056139870E+00
   -2.8000027495E+00   -2.7944139121E+00   -2.7888473410E+00   -2.7833029034E+00
   -2.7777804675E+00   -2.7722799027E+00   -2.7668010792E+00   -2.7613438684E+00
   -2.7559081427E+00   -2.7504937754E+00   -2.7451006410E+00   -2.7397286147E+00
   -2.7343775729E+00   -2.7290473928E+00   -2.7237379528E+00   -2.7184491319E+00
   -2.7131808104E+00   -2.7079328692E+00   -2.7027051903E+00   -2.6974976566E+00
   -2.6923101519E+00   -2.6871425609E+00   -2.6819947690E+00   -2.6768666628E+00
   -2.6717581296E+00   -2.6666690574E+00   -2.6615993353E+00   -2.6565488531E+00
   -2.6515175016E+00   -2.6465051722E+00   -2.6415117572E+00   -2.6365371499E+00