<UPF version="2.0.1">
  <PP_INFO>

 This pseudopotential file has been produced using the code
 ONCVPSP  (Optimized Norm-Conservinng Vanderbilt PSeudopotential)
 scalar-relativistic version 3.2.2 08/07/2015 by D. R. Hamann
 The code is available through a link at URL www.mat-simresearch.com.
 Documentation with the package provides a full discription of the
 input data below.


 While it is not required under the terms of the GNU GPL, it is
 suggested that you cite D. R. Hamann, Phys. Rev. B 88, 085117 (2013)
 in any publication using these pseudopotentials.

    <PP_INPUTFILE>
# ATOM AND REFERENCE CONFIGURATION
# atsym  z   nc   nv     iexc    psfile
  He  2.00    0    1       4      upf
#
#   n    l    f        energy (Ha)
    1    0    2.00
#
# PSEUDOPOTENTIAL AND OPTIMIZATION
# lmax
    0
#
#   l,   rc,     ep,   ncon, nbas, qcut
    0    2.01   -0.58    5    8    7.17
#
# LOCAL POTENTIAL
# lloc, lpopt,  rc(5),   dvloc0
    4    5      0.89       0.00
#
# VANDERBILT-KLEINMAN-BYLANDER PROJECTORs
# l, nproj, debl
    0    2    1.3402
#
# MODEL CORE CHARGE
# icmod, fcfact
    0    0.00
#
# LOG DERIVATIVE ANALYSIS
# epsh1, epsh2, depsh
   -5.00    3.00    0.02
#
# OUTPUT GRID
# rlmax, drl
    6.00    0.01
#
# TEST CONFIGURATIONS
# ncnf
    0
# nvcnf
#   n    l    f
    </PP_INPUTFILE>
  </PP_INFO>
  <!--                               -->
  <!-- END OF HUMAN READABLE SECTION -->
  <!--                               -->
    <PP_HEADER
       generated="Generated using ONCVPSP code by D. R. Hamann"
       author="anonymous"
       date="160823"
       comment=""
       element="He"
       pseudo_type="NC"
       relativistic="scalar"
       is_ultrasoft="F"
       is_paw="F"
       is_coulomb="F"
       has_so="F"
       has_wfc="F"
       has_gipaw="F"
       core_correction="F"
       functional="PBE"
       z_valence="    2.00"
       total_psenergy="  -5.57604857667E+00"
       wfc_cutoff="   5.00000000000E+01"
       r_cut="3.00"
       l_max="0"
       l_local="-1"
       mesh_size="   722"
       number_of_wfc="1"
       number_of_proj="2"/>
 <PP_MESH>
   <PP_R type="real"  size=" 722" columns="8">
    0.0000    0.0100    0.0200    0.0300    0.0400    0.0500    0.0600    0.0700
    0.0800    0.0900    0.1000    0.1100    0.1200    0.1300    0.1400    0.1500
    0.1600    0.1700    0.1800    0.1900    0.2000    0.2100    0.2200    0.2300
    0.2400    0.2500    0.2600    0.2700    0.2800    0.2900    0.3000    0.3100
    0.3200    0.3300    0.3400    0.3500    0.3600    0.3700    0.3800    0.3900
    0.4000    0.4100    0.4200    0.4300    0.4400    0.4500    0.4600    0.4700
    0.4800    0.4900    0.5000    0.5100    0.5200    0.5300    0.5400    0.5500
    0.5600    0.5700    0.5800    0.5900    0.6000    0.6100    0.6200    0.6300
    0.6400    0.6500    0.6600    0.6700    0.6800    0.6900    0.7000    0.7100
    0.7200    0.7300    0.7400    0.7500    0.7600    0.7700    0.7800    0.7900
    0.8000    0.8100    0.8200    0.8300    0.8400    0.8500    0.8600    0.8700
    0.8800    0.8900    0.9000    0.9100    0.9200    0.9300    0.9400    0.9500
    0.9600    0.9700    0.9800    0.9900    1.0000    1.0100    1.0200    1.0300
    1.0400    1.0500    1.0600    1.0700    1.0800    1.0900    1.1000    1.1100
    1.1200    1.1300    1.1400    1.1500    1.1600    1.1700    1.1800    1.1900
    1.2000    1.2100    1.2200    1.2300    1.2400    1.2500    1.2600    1.2700
    1.2800    1.2900    1.3000    1.3100    1.3200    1.3300    1.3400    1.3500
    1.3600    1.3700    1.3800    1.3900    1.4000    1.4100    1.4200    1.4300
    1.4400    1.4500    1.4600    1.4700    1.4800    1.4900    1.5000    1.5100
    1.5200    1.5300    1.5400    1.5500    1.5600    1.5700    1.5800    1.5900
    1.6000    1.6100    1.6200    1.6300    1.6400    1.6500    1.6600    1.6700
    1.6800    1.6900    1.7000    1.7100    1.7200    1.7300    1.7400    1.7500
    1.7600    1.7700    1.7800    1.7900    1.8000    1.8100    1.8200    1.8300
    1.8400    1.8500    1.8600    1.8700    1.8800    1.8900    1.9000    1.9100
    1.9200    1.9300    1.9400    1.9500    1.9600    1.9700    1.9800    1.9900
    2.0000    2.0100    2.0200    2.0300    2.0400    2.0500    2.0600    2.0700
    2.0800    2.0900    2.1000    2.1100    2.1200    2.1300    2.1400    2.1500
    2.1600    2.1700    2.1800    2.1900    2.2000    2.2100    2.2200    2.2300
    2.2400    2.2500    2.2600    2.2700    2.2800    2.2900    2.3000    2.3100
    2.3200    2.3300    2.3400    2.3500    2.3600    2.3700    2.3800    2.3900
    2.4000    2.4100    2.4200    2.4300    2.4400    2.4500    2.4600    2.4700
    2.4800    2.4900    2.5000    2.5100    2.5200    2.5300    2.5400    2.5500
    2.5600    2.5700    2.5800    2.5900    2.6000    2.6100    2.6200    2.6300
    2.6400    2.6500    2.6600    2.6700    2.6800    2.6900    2.7000    2.7100
    2.7200    2.7300    2.7400    2.7500    2.7600    2.7700    2.7800    2.7900
    2.8000    2.8100    2.8200    2.8300    2.8400    2.8500    2.8600    2.8700
    2.8800    2.8900    2.9000    2.9100    2.9200    2.9300    2.9400    2.9500
    2.9600    2.9700    2.9800    2.9900    3.0000    3.0100    3.0200    3.0300
    3.0400    3.0500    3.0600    3.0700    3.0800    3.0900    3.1000    3.1100
    3.1200    3.1300    3.1400    3.1500    3.1600    3.1700    3.1800    3.1900
    3.2000    3.2100    3.2200    3.2300    3.2400    3.2500    3.2600    3.2700
    3.2800    3.2900    3.3000    3.3100    3.3200    3.3300    3.3400    3.3500
    3.3600    3.3700    3.3800    3.3900    3.4000    3.4100    3.4200    3.4300
    3.4400    3.4500    3.4600    3.4700    3.4800    3.4900    3.5000    3.5100
    3.5200    3.5300    3.5400    3.5500    3.5600    3.5700    3.5800    3.5900
    3.6000    3.6100    3.6200    3.6300    3.6400    3.6500    3.6600    3.6700
    3.6800    3.6900    3.7000    3.7100    3.7200    3.7300    3.7400    3.7500
    3.7600    3.7700    3.7800    3.7900    3.8000    3.8100    3.8200    3.8300
    3.8400    3.8500    3.8600    3.8700    3.8800    3.8900    3.9000    3.9100
    3.9200    3.9300    3.9400    3.9500    3.9600    3.9700    3.9800    3.9900
    4.0000    4.0100    4.0200    4.0300    4.0400    4.0500    4.0600    4.0700
    4.0800    4.0900    4.1000    4.1100    4.1200    4.1300    4.1400    4.1500
    4.1600    4.1700    4.1800    4.1900    4.2000    4.2100    4.2200    4.2300
    4.2400    4.2500    4.2600    4.2700    4.2800    4.2900    4.3000    4.3100
    4.3200    4.3300    4.3400    4.3500    4.3600    4.3700    4.3800    4.3900
    4.4000    4.4100    4.4200    4.4300    4.4400    4.4500    4.4600    4.4700
    4.4800    4.4900    4.5000    4.5100    4.5200    4.5300    4.5400    4.5500
    4.5600    4.5700    4.5800    4.5900    4.6000    4.6100    4.6200    4.6300
    4.6400    4.6500    4.6600    4.6700    4.6800    4.6900    4.7000    4.7100
    4.7200    4.7300    4.7400    4.7500    4.7600    4.7700    4.7800    4.7900
    4.8000    4.8100    4.8200    4.8300    4.8400    4.8500    4.8600    4.8700
    4.8800    4.8900    4.9000    4.9100    4.9200    4.9300    4.9400    4.9500
    4.9600    4.9700    4.9800    4.9900    5.0000    5.0100    5.0200    5.0300
    5.0400    5.0500    5.0600    5.0700    5.0800    5.0900    5.1000    5.1100
    5.1200    5.1300    5.1400    5.1500    5.1600    5.1700    5.1800    5.1900
    5.2000    5.2100    5.2200    5.2300    5.2400    5.2500    5.2600    5.2700
    5.2800    5.2900    5.3000    5.3100    5.3200    5.3300    5.3400    5.3500
    5.3600    5.3700    5.3800    5.3900    5.4000    5.4100    5.4200    5.4300
    5.4400    5.4500    5.4600    5.4700    5.4800    5.4900    5.5000    5.5100
    5.5200    5.5300    5.5400    5.5500    5.5600    5.5700    5.5800    5.5900
    5.6000    5.6100    5.6200    5.6300    5.6400    5.6500    5.6600    5.6700
    5.6800    5.6900    5.7000    5.7100    5.7200    5.7300    5.7400    5.7500
    5.7600    5.7700    5.7800    5.7900    5.8000    5.8100    5.8200    5.8300
    5.8400    5.8500    5.8600    5.8700    5.8800    5.8900    5.9000    5.9100
    5.9200    5.9300    5.9400    5.9500    5.9600    5.9700    5.9800    5.9900
    6.0000    6.0100    6.0200    6.0300    6.0400    6.0500    6.0600    6.0700
    6.0800    6.0900    6.1000    6.1100    6.1200    6.1300    6.1400    6.1500
    6.1600    6.1700    6.1800    6.1900    6.2000    6.2100    6.2200    6.2300
    6.2400    6.2500    6.2600    6.2700    6.2800    6.2900    6.3000    6.3100
    6.3200    6.3300    6.3400    6.3500    6.3600    6.3700    6.3800    6.3900
    6.4000    6.4100    6.4200    6.4300    6.4400    6.4500    6.4600    6.4700
    6.4800    6.4900    6.5000    6.5100    6.5200    6.5300    6.5400    6.5500
    6.5600    6.5700    6.5800    6.5900    6.6000    6.6100    6.6200    6.6300
    6.6400    6.6500    6.6600    6.6700    6.6800    6.6900    6.7000    6.7100
    6.7200    6.7300    6.7400    6.7500    6.7600    6.7700    6.7800    6.7900
    6.8000    6.8100    6.8200    6.8300    6.8400    6.8500    6.8600    6.8700
    6.8800    6.8900    6.9000    6.9100    6.9200    6.9300    6.9400    6.9500
    6.9600    6.9700    6.9800    6.9900    7.0000    7.0100    7.0200    7.0300
    7.0400    7.0500    7.0600    7.0700    7.0800    7.0900    7.1000    7.1100
    7.1200    7.1300    7.1400    7.1500    7.1600    7.1700    7.1800    7.1900
    7.2000    7.2100
   </PP_R>
   <PP_RAB type="real"  size=" 722" columns="8">
    0.0100    0.0100    0.0100    0.0100    0.0100    0.0100    0.0100    0.0100
    0.0100    0.0100    0.0100    0.0100    0.0100    0.0100    0.0100    0.0100
    0.0100    0.0100    0.0100    0.0100    0.0100    0.0100    0.0100    0.0100
    0.0100    0.0100    0.0100    0.0100    0.0100    0.0100    0.0100    0.0100
    0.0100    0.0100    0.0100    0.0100    0.0100    0.0100    0.0100    0.0100
    0.0100    0.0100    0.0100    0.0100    0.0100    0.0100    0.0100    0.0100
    0.0100    0.0100    0.0100    0.0100    0.0100    0.0100    0.0100    0.0100
    0.0100    0.0100    0.0100    0.0100    0.0100    0.0100    0.0100    0.0100
    0.0100    0.0100    0.0100    0.0100    0.0100    0.0100    0.0100    0.0100
    0.0100    0.0100    0.0100    0.0100    0.0100    0.0100    0.0100    0.0100
    0.0100    0.0100    0.0100    0.0100    0.0100    0.0100    0.0100    0.0100
    0.0100    0.0100    0.0100    0.0100    0.0100    0.0100    0.0100    0.0100
    0.0100    0.0100    0.0100    0.0100    0.0100    0.0100    0.0100    0.0100
    0.0100    0.0100    0.0100    0.0100    0.0100    0.0100    0.0100    0.0100
    0.0100    0.0100    0.0100    0.0100    0.0100    0.0100    0.0100    0.0100
    0.0100    0.0100    0.0100    0.0100    0.0100    0.0100    0.0100    0.0100
    0.0100    0.0100    0.0100    0.0100    0.0100    0.0100    0.0100    0.0100
    0.0100    0.0100    0.0100    0.0100    0.0100    0.0100    0.0100    0.0100
    0.0100    0.0100    0.0100    0.0100    0.0100    0.0100    0.0100    0.0100
    0.0100    0.0100    0.0100    0.0100    0.0100    0.0100    0.0100    0.0100
    0.0100    0.0100    0.0100    0.0100    0.0100    0.0100    0.0100    0.0100
    0.0100    0.0100    0.0100    0.0100    0.0100    0.0100    0.0100    0.0100
    0.0100    0.0100    0.0100    0.0100    0.0100    0.0100    0.0100    0.0100
    0.0100    0.0100    0.0100    0.0100    0.0100    0.0100    0.0100    0.0100
    0.0100    0.0100    0.0100    0.0100    0.0100    0.0100    0.0100    0.0100
    0.0100    0.0100    0.0100    0.0100    0.0100    0.0100    0.0100    0.0100
    0.0100    0.0100    0.0100    0.0100    0.0100    0.0100    0.0100    0.0100
    0.0100    0.0100    0.0100    0.0100    0.0100    0.0100    0.0100    0.0100
    0.0100    0.0100    0.0100    0.0100    0.0100    0.0100    0.0100    0.0100
    0.0100    0.0100    0.0100    0.0100    0.0100    0.0100    0.0100    0.0100
    0.0100    0.0100    0.0100    0.0100    0.0100    0.0100    0.0100    0.0100
    0.0100    0.0100    0.0100    0.0100    0.0100    0.0100    0.0100    0.0100
    0.0100    0.0100    0.0100    0.0100    0.0100    0.0100    0.0100    0.0100
    0.0100    0.0100    0.0100    0.0100    0.0100    0.0100    0.0100    0.0100
    0.0100    0.0100    0.0100    0.0100    0.0100    0.0100    0.0100    0.0100
    0.0100    0.0100    0.0100    0.0100    0.0100    0.0100    0.0100    0.0100
    0.0100    0.0100    0.0100    0.0100    0.0100    0.0100    0.0100    0.0100
    0.0100    0.0100    0.0100    0.0100    0.0100    0.0100    0.0100    0.0100
    0.0100    0.0100    0.0100    0.0100    0.0100    0.0100    0.0100    0.0100
    0.0100    0.0100    0.0100    0.0100    0.0100    0.0100    0.0100    0.0100
    0.0100    0.0100    0.0100    0.0100    0.0100    0.0100    0.0100    0.0100
    0.0100    0.0100    0.0100    0.0100    0.0100    0.0100    0.0100    0.0100
    0.0100    0.0100    0.0100    0.0100    0.0100    0.0100    0.0100    0.0100
    0.0100    0.0100    0.0100    0.0100    0.0100    0.0100    0.0100    0.0100
    0.0100    0.0100    0.0100    0.0100    0.0100    0.0100    0.0100    0.0100
    0.0100    0.0100    0.0100    0.0100    0.0100    0.0100    0.0100    0.0100
    0.0100    0.0100    0.0100    0.0100    0.0100    0.0100    0.0100    0.0100
    0.0100    0.0100    0.0100    0.0100    0.0100    0.0100    0.0100    0.0100
    0.0100    0.0100    0.0100    0.0100    0.0100    0.0100    0.0100    0.0100
    0.0100    0.0100    0.0100    0.0100    0.0100    0.0100    0.0100    0.0100
    0.0100    0.0100    0.0100    0.0100    0.0100    0.0100    0.0100    0.0100
    0.0100    0.0100    0.0100    0.0100    0.0100    0.0100    0.0100    0.0100
    0.0100    0.0100    0.0100    0.0100    0.0100    0.0100    0.0100    0.0100
    0.0100    0.0100    0.0100    0.0100    0.0100    0.0100    0.0100    0.0100
    0.0100    0.0100    0.0100    0.0100    0.0100    0.0100    0.0100    0.0100
    0.0100    0.0100    0.0100    0.0100    0.0100    0.0100    0.0100    0.0100
    0.0100    0.0100    0.0100    0.0100    0.0100    0.0100    0.0100    0.0100
    0.0100    0.0100    0.0100    0.0100    0.0100    0.0100    0.0100    0.0100
    0.0100    0.0100    0.0100    0.0100    0.0100    0.0100    0.0100    0.0100
    0.0100    0.0100    0.0100    0.0100    0.0100    0.0100    0.0100    0.0100
    0.0100    0.0100    0.0100    0.0100    0.0100    0.0100    0.0100    0.0100
    0.0100    0.0100    0.0100    0.0100    0.0100    0.0100    0.0100    0.0100
    0.0100    0.0100    0.0100    0.0100    0.0100    0.0100    0.0100    0.0100
    0.0100    0.0100    0.0100    0.0100    0.0100    0.0100    0.0100    0.0100
    0.0100    0.0100    0.0100    0.0100    0.0100    0.0100    0.0100    0.0100
    0.0100    0.0100    0.0100    0.0100    0.0100    0.0100    0.0100    0.0100
    0.0100    0.0100    0.0100    0.0100    0.0100    0.0100    0.0100    0.0100
    0.0100    0.0100    0.0100    0.0100    0.0100    0.0100    0.0100    0.0100
    0.0100    0.0100    0.0100    0.0100    0.0100    0.0100    0.0100    0.0100
    0.0100    0.0100    0.0100    0.0100    0.0100    0.0100    0.0100    0.0100
    0.0100    0.0100    0.0100    0.0100    0.0100    0.0100    0.0100    0.0100
    0.0100    0.0100    0.0100    0.0100    0.0100    0.0100    0.0100    0.0100
    0.0100    0.0100    0.0100    0.0100    0.0100    0.0100    0.0100    0.0100
    0.0100    0.0100    0.0100    0.0100    0.0100    0.0100    0.0100    0.0100
    0.0100    0.0100    0.0100    0.0100    0.0100    0.0100    0.0100    0.0100
    0.0100    0.0100    0.0100    0.0100    0.0100    0.0100    0.0100    0.0100
    0.0100    0.0100    0.0100    0.0100    0.0100    0.0100    0.0100    0.0100
    0.0100    0.0100    0.0100    0.0100    0.0100    0.0100    0.0100    0.0100
    0.0100    0.0100    0.0100    0.0100    0.0100    0.0100    0.0100    0.0100
    0.0100    0.0100    0.0100    0.0100    0.0100    0.0100    0.0100    0.0100
    0.0100    0.0100    0.0100    0.0100    0.0100    0.0100    0.0100    0.0100
    0.0100    0.0100    0.0100    0.0100    0.0100    0.0100    0.0100    0.0100
    0.0100    0.0100    0.0100    0.0100    0.0100    0.0100    0.0100    0.0100
    0.0100    0.0100    0.0100    0.0100    0.0100    0.0100    0.0100    0.0100
    0.0100    0.0100    0.0100    0.0100    0.0100    0.0100    0.0100    0.0100
    0.0100    0.0100    0.0100    0.0100    0.0100    0.0100    0.0100    0.0100
    0.0100    0.0100    0.0100    0.0100    0.0100    0.0100    0.0100    0.0100
    0.0100    0.0100    0.0100    0.0100    0.0100    0.0100    0.0100    0.0100
    0.0100    0.0100    0.0100    0.0100    0.0100    0.0100    0.0100    0.0100
    0.0100    0.0100    0.0100    0.0100    0.0100    0.0100    0.0100    0.0100
    0.0100    0.0100
   </PP_RAB>
 </PP_MESH>
  <PP_LOCAL type="real"  size=" 722" columns="4">
   -9.6981587639E+00   -9.6967715115E+00   -9.6926117752E+00   -9.6856855750E+00
   -9.6760029138E+00   -9.6635777295E+00   -9.6484278285E+00   -9.6305748031E+00
   -9.6100439328E+00   -9.5868640718E+00   -9.5610675241E+00   -9.5326899078E+00
   -9.5017700105E+00   -9.4683496383E+00   -9.4324734595E+00   -9.3941888452E+00
   -9.3535457089E+00   -9.3105963455E+00   -9.2653952735E+00   -9.2179990783E+00
   -9.1684662612E+00   -9.1168570926E+00   -9.0632334710E+00   -9.0076587882E+00
   -8.9501978012E+00   -8.8909165106E+00   -8.8298820457E+00   -8.7671625565E+00
   -8.7028271113E+00   -8.6369456011E+00   -8.5695886486E+00   -8.5008275233E+00
   -8.4307340596E+00   -8.3593805803E+00   -8.2868398226E+00   -8.2131848665E+00
   -8.1384890662E+00   -8.0628259824E+00   -7.9862693160E+00   -7.9088928423E+00
   -7.8307703447E+00   -7.7519755495E+00   -7.6725820582E+00   -7.5926632800E+00
   -7.5122923627E+00   -7.4315421216E+00   -7.3504849672E+00   -7.2691928302E+00
   -7.1877370853E+00   -7.1061884717E+00   -7.0246170121E+00   -6.9430919290E+00
   -6.8616815589E+00   -6.7804532636E+00   -6.6994733394E+00   -6.6188069245E+00
   -6.5385179035E+00   -6.4586688096E+00   -6.3793207259E+00   -6.3005331833E+00
   -6.2223640580E+00   -6.1448694661E+00   -6.0681036580E+00   -5.9921189104E+00
   -5.9169654184E+00   -5.8426911855E+00   -5.7693419143E+00   -5.6969608956E+00
   -5.6255888986E+00   -5.5552640601E+00   -5.4860217745E+00   -5.4178945850E+00
   -5.3509120745E+00   -5.2851007582E+00   -5.2204839777E+00   -5.1570817957E+00
   -5.0949108925E+00   -5.0339844644E+00   -4.9743121231E+00   -4.9158997972E+00
   -4.8587496343E+00   -4.8028599054E+00   -4.7482249091E+00   -4.6948348781E+00
   -4.6426758842E+00   -4.5917297446E+00   -4.5419739272E+00   -4.4933814539E+00
   -4.4459208021E+00   -4.3995558455E+00   -4.3542455851E+00   -4.3099458824E+00
   -4.2666130164E+00   -4.2242054189E+00   -4.1826834407E+00   -4.1420093540E+00
   -4.1021473074E+00   -4.0630632810E+00   -4.0247250422E+00   -3.9871020998E+00
   -3.9501656572E+00   -3.9138885632E+00   -3.8782452616E+00   -3.8432117374E+00
   -3.8087654627E+00   -3.7748853384E+00   -3.7415516363E+00   -3.7087459376E+00
   -3.6764510718E+00   -3.6446510526E+00   -3.6133310154E+00   -3.5824771521E+00
   -3.5520766480E+00   -3.5221176174E+00   -3.4925890416E+00   -3.4634807062E+00
   -3.4347831406E+00   -3.4064875614E+00   -3.3785858133E+00   -3.3510703158E+00
   -3.3239340109E+00   -3.2971703137E+00   -3.2707730652E+00   -3.2447364884E+00
   -3.2190551468E+00   -3.1937239054E+00   -3.1687378954E+00   -3.1440924803E+00
   -3.1197832257E+00   -3.0958058709E+00   -3.0721563033E+00   -3.0488305347E+00
   -3.0258246804E+00   -3.0031349392E+00   -2.9807575761E+00   -2.9586889065E+00
   -2.9369252817E+00   -2.9154630756E+00   -2.8942986734E+00   -2.8734284606E+00
   -2.8528488135E+00   -2.8325560902E+00   -2.8125466232E+00   -2.7928167118E+00
   -2.7733626163E+00   -2.7541805518E+00   -2.7352666836E+00   -2.7166171232E+00
   -2.6982279248E+00   -2.6800950823E+00   -2.6622145284E+00   -2.6445821330E+00
   -2.6271937038E+00   -2.6100449872E+00   -2.5931316706E+00   -2.5764493858E+00
   -2.5599937135E+00   -2.5437601888E+00   -2.5277443079E+00   -2.5119415364E+00
   -2.4963473180E+00   -2.4809570847E+00   -2.4657662678E+00   -2.4507703094E+00
   -2.4359646751E+00   -2.4213448671E+00   -2.4069064371E+00   -2.3926450002E+00
   -2.3785562480E+00   -2.3646359617E+00   -2.3508800251E+00   -2.3372844363E+00
   -2.3238453192E+00   -2.3105589330E+00   -2.2974216819E+00   -2.2844301216E+00
   -2.2715809665E+00   -2.2588710932E+00   -2.2462975437E+00   -2.2338575266E+00
   -2.2215484163E+00   -2.2093677511E+00   -2.1973132287E+00   -2.1853827015E+00
   -2.1735741692E+00   -2.1618857706E+00   -2.1503157741E+00   -2.1388625677E+00
   -2.1275246465E+00   -2.1163006017E+00   -2.1051891070E+00   -2.0941889061E+00
   -2.0832987987E+00   -2.0725176283E+00   -2.0618442676E+00   -2.0512776066E+00
   -2.0408165408E+00   -2.0304599577E+00   -2.0202067272E+00   -2.0100556914E+00
   -2.0000056501E+00   -1.9900553537E+00   -1.9802035033E+00   -1.9704487344E+00
   -1.9607896380E+00   -1.9512247967E+00   -1.9417528191E+00   -1.9323723341E+00
   -1.9230820243E+00   -1.9138806126E+00   -1.9047668446E+00   -1.8957394687E+00
   -1.8867972570E+00   -1.8779390098E+00   -1.8691635511E+00   -1.8604697262E+00
   -1.8518564011E+00   -1.8433224629E+00   -1.8348668189E+00   -1.8264883968E+00
   -1.8181861434E+00   -1.8099590248E+00   -1.8018060257E+00   -1.7937261488E+00
   -1.7857184149E+00   -1.7777818621E+00   -1.7699155454E+00   -1.7621185367E+00
   -1.7543899239E+00   -1.7467288110E+00   -1.7391343175E+00   -1.7316055784E+00
   -1.7241417432E+00   -1.7167419762E+00   -1.7094054562E+00   -1.7021313755E+00
   -1.6949189406E+00   -1.6877673710E+00   -1.6806758996E+00   -1.6736437719E+00
   -1.6666702461E+00   -1.6597545927E+00   -1.6528960943E+00   -1.6460940452E+00
   -1.6393477514E+00   -1.6326565301E+00   -1.6260197097E+00   -1.6194366294E+00
   -1.6129066391E+00   -1.6064290991E+00   -1.6000033801E+00   -1.5936288627E+00
   -1.5873049372E+00   -1.5810310038E+00   -1.5748064719E+00   -1.5686307604E+00
   -1.5625032972E+00   -1.5564235189E+00   -1.5503908711E+00   -1.5444048079E+00
   -1.5384647918E+00   -1.5325702933E+00   -1.5267207914E+00   -1.5209157728E+00
   -1.5151547319E+00   -1.5094371708E+00   -1.5037625992E+00   -1.4981305340E+00
   -1.4925404994E+00   -1.4869920267E+00   -1.4814846539E+00   -1.4760179262E+00
   -1.4705913951E+00   -1.4652046191E+00   -1.4598571627E+00   -1.4545485970E+00
   -1.4492784994E+00   -1.4440464531E+00   -1.4388520475E+00   -1.4336948779E+00
   -1.4285745453E+00   -1.4234906564E+00   -1.4184428235E+00   -1.4134306644E+00
   -1.4084538022E+00   -1.4035118653E+00   -1.3986044875E+00   -1.3937313074E+00
   -1.3888919689E+00   -1.3840861205E+00   -1.3793134159E+00   -1.3745735134E+00
   -1.3698660759E+00   -1.3651907710E+00   -1.3605472709E+00   -1.3559352520E+00
   -1.3513543954E+00   -1.3468043862E+00   -1.3422849140E+00   -1.3377956722E+00
   -1.3333363585E+00   -1.3289066748E+00   -1.3245063267E+00   -1.3201350236E+00
   -1.3157924790E+00   -1.3114784099E+00   -1.3071925373E+00   -1.3029345856E+00
   -1.2987042827E+00   -1.2945013604E+00   -1.2903255535E+00   -1.2861766006E+00
   -1.2820542433E+00   -1.2779582269E+00   -1.2738882996E+00   -1.2698442130E+00
   -1.2658257217E+00   -1.2618325836E+00   -1.2578645593E+00   -1.2539214128E+00
   -1.2500029109E+00   -1.2461088231E+00   -1.2422389220E+00   -1.2383929831E+00
   -1.2345707843E+00   -1.2307721066E+00   -1.2269967336E+00   -1.2232444513E+00
   -1.2195150487E+00   -1.2158083171E+00   -1.2121240503E+00   -1.2084620448E+00
   -1.2048220995E+00   -1.2012040156E+00   -1.1976075966E+00   -1.1940326487E+00
   -1.1904789801E+00   -1.1869464014E+00   -1.1834347253E+00   -1.1799437670E+00
   -1.1764733436E+00   -1.1730232744E+00   -1.1695933809E+00   -1.1661834867E+00
   -1.1627934173E+00   -1.1594230003E+00   -1.1560720654E+00   -1.1527404441E+00
   -1.1494279699E+00   -1.1461344782E+00   -1.1428598064E+00   -1.1396037935E+00
   -1.1363662806E+00   -1.1331471104E+00   -1.1299461275E+00   -1.1267631782E+00
   -1.1235981105E+00   -1.1204507742E+00   -1.1173210206E+00   -1.1142087029E+00
   -1.1111136757E+00   -1.1080357953E+00   -1.1049749198E+00   -1.1019309084E+00
   -1.0989036223E+00   -1.0958929239E+00   -1.0928986774E+00   -1.0899207482E+00
   -1.0869590032E+00   -1.0840133110E+00   -1.0810835414E+00   -1.0781695656E+00
   -1.0752712562E+00   -1.0723884872E+00   -1.0695211341E+00   -1.0666690734E+00
   -1.0638321832E+00   -1.0610103427E+00   -1.0582034325E+00   -1.0554113344E+00
   -1.0526339315E+00   -1.0498711080E+00   -1.0471227496E+00   -1.0443887428E+00
   -1.0416689755E+00   -1.0389633369E+00   -1.0362717170E+00   -1.0335940072E+00
   -1.0309301000E+00   -1.0282798889E+00   -1.0256432686E+00   -1.0230201348E+00
   -1.0204103842E+00   -1.0178139148E+00   -1.0152306254E+00   -1.0126604158E+00
   -1.0101031871E+00   -1.0075588410E+00   -1.0050272806E+00   -1.0025084097E+00
   -1.0000021330E+00   -9.9750835650E-01   -9.9502698675E-01   -9.9255793145E-01
   -9.9010109915E-01   -9.8765639932E-01   -9.8522374231E-01   -9.8280303934E-01
   -9.8039420253E-01   -9.7799714483E-01   -9.7561178007E-01   -9.7323802288E-01
   -9.7087578876E-01   -9.6852499399E-01   -9.6618555569E-01   -9.6385739176E-01
   -9.6154042089E-01   -9.5923456257E-01   -9.5693973704E-01   -9.5465586530E-01
   -9.5238286912E-01   -9.5012067099E-01   -9.4786919416E-01   -9.4562836259E-01
   -9.4339810096E-01   -9.4117833465E-01   -9.3896898976E-01   -9.3676999308E-01
   -9.3458127206E-01   -9.3240275485E-01   -9.3023437027E-01   -9.2807604777E-01
   -9.2592771750E-01   -9.2378931021E-01   -9.2166075733E-01   -9.1954199088E-01
   -9.1743294353E-01   -9.1533354856E-01   -9.1324373986E-01   -9.1116345191E-01
   -9.0909261982E-01   -9.0703117924E-01   -9.0497906644E-01   -9.0293621825E-01
   -9.0090257207E-01   -8.9887806586E-01   -8.9686263816E-01   -8.9485622802E-01
   -8.9285877507E-01   -8.9087021945E-01   -8.8889050185E-01   -8.8691956349E-01
   -8.8495734609E-01   -8.8300379190E-01   -8.8105884367E-01   -8.7912244467E-01
   -8.7719453864E-01   -8.7527506983E-01   -8.7336398299E-01   -8.7146122332E-01
   -8.6956673653E-01   -8.6768046876E-01   -8.6580236666E-01   -8.6393237731E-01
   -8.6207044827E-01   -8.6021652752E-01   -8.5837056352E-01   -8.5653250515E-01
   -8.5470230173E-01   -8.5287990302E-01   -8.5106525921E-01   -8.4925832089E-01
   -8.4745903910E-01   -8.4566736527E-01   -8.4388325125E-01   -8.4210664930E-01
   -8.4033751206E-01   -8.3857579260E-01   -8.3682144436E-01   -8.3507442117E-01
   -8.3333467725E-01   -8.3160216720E-01   -8.2987684599E-01   -8.2815866899E-01
   -8.2644759189E-01   -8.2474357079E-01   -8.2304656213E-01   -8.2135652272E-01
   -8.1967340970E-01   -8.1799718060E-01   -8.1632779325E-01   -8.1466520586E-01
   -8.1300937697E-01   -8.1136026545E-01   -8.0971783050E-01   -8.0808203166E-01
   -8.0645282879E-01   -8.0483018209E-01   -8.0321405205E-01   -8.0160439949E-01
   -8.0000118556E-01   -7.9840437169E-01   -7.9681391964E-01   -7.9522979147E-01
   -7.9365194953E-01   -7.9208035649E-01   -7.9051497528E-01   -7.8895576916E-01
   -7.8740270167E-01   -7.8585573660E-01   -7.8431483808E-01   -7.8277997049E-01
   -7.8125109849E-01   -7.7972818701E-01   -7.7821120127E-01   -7.7670010675E-01
   -7.7519486920E-01   -7.7369545463E-01   -7.7220182932E-01   -7.7071395980E-01
   -7.6923181288E-01   -7.6775535558E-01   -7.6628455523E-01   -7.6481937936E-01
   -7.6335979579E-01   -7.6190577254E-01   -7.6045727791E-01   -7.5901428043E-01
   -7.5757674886E-01   -7.5614465221E-01   -7.5471795971E-01   -7.5329664083E-01
   -7.5188066526E-01   -7.5047000294E-01   -7.4906462402E-01   -7.4766449886E-01
   -7.4626959806E-01   -7.4487989243E-01   -7.4349535301E-01   -7.4211595104E-01
   -7.4074165799E-01   -7.3937244551E-01   -7.3800828549E-01   -7.3664915001E-01
   -7.3529501137E-01   -7.3394584206E-01   -7.3260161478E-01   -7.3126230241E-01
   -7.2992787806E-01   -7.2859831502E-01   -7.2727358677E-01   -7.2595366698E-01
   -7.2463852952E-01   -7.2332814845E-01   -7.2202249801E-01   -7.2072155263E-01
   -7.1942528693E-01   -7.1813367569E-01   -7.1684669390E-01   -7.1556431671E-01
   -7.1428651945E-01   -7.1301327763E-01   -7.1174456693E-01   -7.1048036322E-01
   -7.0922064250E-01   -7.0796538099E-01   -7.0671455505E-01   -7.0546814121E-01
   -7.0422611616E-01   -7.0298845676E-01   -7.0175514005E-01   -7.0052614319E-01
   -6.9930144354E-01   -6.9808101860E-01   -6.9686484602E-01   -6.9565290362E-01
   -6.9444516937E-01   -6.9324162139E-01   -6.9204223794E-01   -6.9084699746E-01
   -6.8965587851E-01   -6.8846885981E-01   -6.8728592022E-01   -6.8610703876E-01
   -6.8493219458E-01   -6.8376136697E-01   -6.8259453537E-01   -6.8143167936E-01
   -6.8027277866E-01   -6.7911781312E-01   -6.7796676273E-01   -6.7681960761E-01
   -6.7567632803E-01   -6.7453690439E-01   -6.7340131719E-01   -6.7226954711E-01
   -6.7114157493E-01   -6.7001738157E-01   -6.6889694806E-01   -6.6778025557E-01
   -6.6666728541E-01   -6.6555801899E-01   -6.6445243785E-01   -6.6335052365E-01
   -6.6225225820E-01   -6.6115762338E-01   -6.6006660124E-01   -6.5897917390E-01
   -6.5789532364E-01   -6.5681503284E-01   -6.5573828399E-01   -6.5466505969E-01
   -6.5359534268E-01   -6.5252911578E-01   -6.5146636195E-01   -6.5040706423E-01
   -6.4935120581E-01   -6.4829876996E-01   -6.4724974005E-01   -6.4620409960E-01
   -6.4516183219E-01   -6.4412292153E-01   -6.4308735143E-01   -6.4205510580E-01
   -6.4102616867E-01   -6.4000052414E-01   -6.3897815645E-01   -6.3795904991E-01
   -6.3694318894E-01   -6.3593055807E-01   -6.3492114191E-01   -6.3391492517E-01
   -6.3291189268E-01   -6.3191202934E-01   -6.3091532015E-01   -6.2992175022E-01
   -6.2893130473E-01   -6.2794396897E-01   -6.2695972831E-01   -6.2597856824E-01
   -6.2500047430E-01   -6.2402543214E-01   -6.2305342751E-01   -6.2208444623E-01