<UPF version="2.0.1">
  <PP_INFO>

 This pseudopotential file has been produced using the code
 ONCVPSP  (Optimized Norm-Conservinng Vanderbilt PSeudopotential)
 scalar-relativistic version 3.2.2 08/07/2015 by D. R. Hamann
 The code is available through a link at URL www.mat-simresearch.com.
 Documentation with the package provides a full discription of the
 input data below.


 While it is not required under the terms of the GNU GPL, it is
 suggested that you cite D. R. Hamann, Phys. Rev. B 88, 085117 (2013)
 in any publication using these pseudopotentials.

    <PP_INPUTFILE>
# ATOM AND REFERENCE CONFIGURATION
# atsym  z   nc   nv     iexc    psfile
  Ne 10.00    1    2       4      upf
#
#   n    l    f        energy (Ha)
    1    0    2.00
    2    0    2.00
    2    1    6.00
#
# PSEUDOPOTENTIAL AND OPTIMIZATION
# lmax
    1
#
#   l,   rc,     ep,   ncon, nbas, qcut
    0    2.65   -1.34    5    8    7.97
    1    2.68   -0.49    5    8    6.61
#
# LOCAL POTENTIAL
# lloc, lpopt,  rc(5),   dvloc0
    4    5      2.65       0.00
#
# VANDERBILT-KLEINMAN-BYLANDER PROJECTORs
# l, nproj, debl
    0    2    1.5486
    1    2    1.1100
#
# MODEL CORE CHARGE
# icmod, fcfact
    0    0.00
#
# LOG DERIVATIVE ANALYSIS
# epsh1, epsh2, depsh
   -5.00    3.00    0.02
#
# OUTPUT GRID
# rlmax, drl
    6.00    0.01
#
# TEST CONFIGURATIONS
# ncnf
    0
# nvcnf
#   n    l    f
    </PP_INPUTFILE>
  </PP_INFO>
  <!--                               -->
  <!-- END OF HUMAN READABLE SECTION -->
  <!--                               -->
    <PP_HEADER
       generated="Generated using ONCVPSP code by D. R. Hamann"
       author="anonymous"
       date="160823"
       comment=""
       element="Ne"
       pseudo_type="NC"
       relativistic="scalar"
       is_ultrasoft="F"
       is_paw="F"
       is_coulomb="F"
       has_so="F"
       has_wfc="F"
       has_gipaw="F"
       core_correction="F"
       functional="PBE"
       z_valence="    8.00"
       total_psenergy="  -6.11392821880E+01"
       wfc_cutoff="   5.00000000000E+01"
       r_cut="3.00"
       l_max="1"
       l_local="-1"
       mesh_size="   758"
       number_of_wfc="2"
       number_of_proj="4"/>
 <PP_MESH>
   <PP_R type="real"  size=" 758" columns="8">
    0.0000    0.0100    0.0200    0.0300    0.0400    0.0500    0.0600    0.0700
    0.0800    0.0900    0.1000    0.1100    0.1200    0.1300    0.1400    0.1500
    0.1600    0.1700    0.1800    0.1900    0.2000    0.2100    0.2200    0.2300
    0.2400    0.2500    0.2600    0.2700    0.2800    0.2900    0.3000    0.3100
    0.3200    0.3300    0.3400    0.3500    0.3600    0.3700    0.3800    0.3900
    0.4000    0.4100    0.4200    0.4300    0.4400    0.4500    0.4600    0.4700
    0.4800    0.4900    0.5000    0.5100    0.5200    0.5300    0.5400    0.5500
    0.5600    0.5700    0.5800    0.5900    0.6000    0.6100    0.6200    0.6300
    0.6400    0.6500    0.6600    0.6700    0.6800    0.6900    0.7000    0.7100
    0.7200    0.7300    0.7400    0.7500    0.7600    0.7700    0.7800    0.7900
    0.8000    0.8100    0.8200    0.8300    0.8400    0.8500    0.8600    0.8700
    0.8800    0.8900    0.9000    0.9100    0.9200    0.9300    0.9400    0.9500
    0.9600    0.9700    0.9800    0.9900    1.0000    1.0100    1.0200    1.0300
    1.0400    1.0500    1.0600    1.0700    1.0800    1.0900    1.1000    1.1100
    1.1200    1.1300    1.1400    1.1500    1.1600    1.1700    1.1800    1.1900
    1.2000    1.2100    1.2200    1.2300    1.2400    1.2500    1.2600    1.2700
    1.2800    1.2900    1.3000    1.3100    1.3200    1.3300    1.3400    1.3500
    1.3600    1.3700    1.3800    1.3900    1.4000    1.4100    1.4200    1.4300
    1.4400    1.4500    1.4600    1.4700    1.4800    1.4900    1.5000    1.5100
    1.5200    1.5300    1.5400    1.5500    1.5600    1.5700    1.5800    1.5900
    1.6000    1.6100    1.6200    1.6300    1.6400    1.6500    1.6600    1.6700
    1.6800    1.6900    1.7000    1.7100    1.7200    1.7300    1.7400    1.7500
    1.7600    1.7700    1.7800    1.7900    1.8000    1.8100    1.8200    1.8300
    1.8400    1.8500    1.8600    1.8700    1.8800    1.8900    1.9000    1.9100
    1.9200    1.9300    1.9400    1.9500    1.9600    1.9700    1.9800    1.9900
    2.0000    2.0100    2.0200    2.0300    2.0400    2.0500    2.0600    2.0700
    2.0800    2.0900    2.1000    2.1100    2.1200    2.1300    2.1400    2.1500
    2.1600    2.1700    2.1800    2.1900    2.2000    2.2100    2.2200    2.2300
    2.2400    2.2500    2.2600    2.2700    2.2800    2.2900    2.3000    2.3100
    2.3200    2.3300    2.3400    2.3500    2.3600    2.3700    2.3800    2.3900
    2.4000    2.4100    2.4200    2.4300    2.4400    2.4500    2.4600    2.4700
    2.4800    2.4900    2.5000    2.5100    2.5200    2.5300    2.5400    2.5500
    2.5600    2.5700    2.5800    2.5900    2.6000    2.6100    2.6200    2.6300
    2.6400    2.6500    2.6600    2.6700    2.6800    2.6900    2.7000    2.7100
    2.7200    2.7300    2.7400    2.7500    2.7600    2.7700    2.7800    2.7900
    2.8000    2.8100    2.8200    2.8300    2.8400    2.8500    2.8600    2.8700
    2.8800    2.8900    2.9000    2.9100    2.9200    2.9300    2.9400    2.9500
    2.9600    2.9700    2.9800    2.9900    3.0000    3.0100    3.0200    3.0300
    3.0400    3.0500    3.0600    3.0700    3.0800    3.0900    3.1000    3.1100
    3.1200    3.1300    3.1400    3.1500    3.1600    3.1700    3.1800    3.1900
    3.2000    3.2100    3.2200    3.2300    3.2400    3.2500    3.2600    3.2700
    3.2800    3.2900    3.3000    3.3100    3.3200    3.3300    3.3400    3.3500
    3.3600    3.3700    3.3800    3.3900    3.4000    3.4100    3.4200    3.4300
    3.4400    3.4500    3.4600    3.4700    3.4800    3.4900    3.5000    3.5100
    3.5200    3.5300    3.5400    3.5500    3.5600    3.5700    3.5800    3.5900
    3.6000    3.6100    3.6200    3.6300    3.6400    3.6500    3.6600    3.6700
    3.6800    3.6900    3.7000    3.7100    3.7200    3.7300    3.7400    3.7500
    3.7600    3.7700    3.7800    3.7900    3.8000    3.8100    3.8200    3.8300
    3.8400    3.8500    3.8600    3.8700    3.8800    3.8900    3.9000    3.9100
    3.9200    3.9300    3.9400    3.9500    3.9600    3.9700    3.9800    3.9900
    4.0000    4.0100    4.0200    4.0300    4.0400    4.0500    4.0600    4.0700
    4.0800    4.0900    4.1000    4.1100    4.1200    4.1300    4.1400    4.1500
    4.1600    4.1700    4.1800    4.1900    4.2000    4.2100    4.2200    4.2300
    4.2400    4.2500    4.2600    4.2700    4.2800    4.2900    4.3000    4.3100
    4.3200    4.3300    4.3400    4.3500    4.3600    4.3700    4.3800    4.3900
    4.4000    4.4100    4.4200    4.4300    4.4400    4.4500    4.4600    4.4700
    4.4800    4.4900    4.5000    4.5100    4.5200    4.5300    4.5400    4.5500
    4.5600    4.5700    4.5800    4.5900    4.6000    4.6100    4.6200    4.6300
    4.6400    4.6500    4.6600    4.6700    4.6800    4.6900    4.7000    4.7100
    4.7200    4.7300    4.7400    4.7500    4.7600    4.7700    4.7800    4.7900
    4.8000    4.8100    4.8200    4.8300    4.8400    4.8500    4.8600    4.8700
    4.8800    4.8900    4.9000    4.9100    4.9200    4.9300    4.9400    4.9500
    4.9600    4.9700    4.9800    4.9900    5.0000    5.0100    5.0200    5.0300
    5.0400    5.0500    5.0600    5.0700    5.0800    5.0900    5.1000    5.1100
    5.1200    5.1300    5.1400    5.1500    5.1600    5.1700    5.1800    5.1900
    5.2000    5.2100    5.2200    5.2300    5.2400    5.2500    5.2600    5.2700
    5.2800    5.2900    5.3000    5.3100    5.3200    5.3300    5.3400    5.3500
    5.3600    5.3700    5.3800    5.3900    5.4000    5.4100    5.4200    5.4300
    5.4400    5.4500    5.4600    5.4700    5.4800    5.4900    5.5000    5.5100
    5.5200    5.5300    5.5400    5.5500    5.5600    5.5700    5.5800    5.5900
    5.6000    5.6100    5.6200    5.6300    5.6400    5.6500    5.6600    5.6700
    5.6800    5.6900    5.7000    5.7100    5.7200    5.7300    5.7400    5.7500
    5.7600    5.7700    5.7800    5.7900    5.8000    5.8100    5.8200    5.8300
    5.8400    5.8500    5.8600    5.8700    5.8800    5.8900    5.9000    5.9100
    5.9200    5.9300    5.9400    5.9500    5.9600    5.9700    5.9800    5.9900
    6.0000    6.0100    6.0200    6.0300    6.0400    6.0500    6.0600    6.0700
    6.0800    6.0900    6.1000    6.1100    6.1200    6.1300    6.1400    6.1500
    6.1600    6.1700    6.1800    6.1900    6.2000    6.2100    6.2200    6.2300
    6.2400    6.2500    6.2600    6.2700    6.2800    6.2900    6.3000    6.3100
    6.3200    6.3300    6.3400    6.3500    6.3600    6.3700    6.3800    6.3900
    6.4000    6.4100    6.4200    6.4300    6.4400    6.4500    6.4600    6.4700
    6.4800    6.4900    6.5000    6.5100    6.5200    6.5300    6.5400    6.5500
    6.5600    6.5700    6.5800    6.5900    6.6000    6.6100    6.6200    6.6300
    6.6400    6.6500    6.6600    6.6700    6.6800    6.6900    6.7000    6.7100
    6.7200    6.7300    6.7400    6.7500    6.7600    6.7700    6.7800    6.7900
    6.8000    6.8100    6.8200    6.8300    6.8400    6.8500    6.8600    6.8700
    6.8800    6.8900    6.9000    6.9100    6.9200    6.9300    6.9400    6.9500
    6.9600    6.9700    6.9800    6.9900    7.0000    7.0100    7.0200    7.0300
    7.0400    7.0500    7.0600    7.0700    7.0800    7.0900    7.1000    7.1100
    7.1200    7.1300    7.1400    7.1500    7.1600    7.1700    7.1800    7.1900
    7.2000    7.2100    7.2200    7.2300    7.2400    7.2500    7.2600    7.2700
    7.2800    7.2900    7.3000    7.3100    7.3200    7.3300    7.3400    7.3500
    7.3600    7.3700    7.3800    7.3900    7.4000    7.4100    7.4200    7.4300
    7.4400    7.4500    7.4600    7.4700    7.4800    7.4900    7.5000    7.5100
    7.5200    7.5300    7.5400    7.5500    7.5600    7.5700
   </PP_R>
   <PP_RAB type="real"  size=" 758" columns="8">
    0.0100    0.0100    0.0100    0.0100    0.0100    0.0100    0.0100    0.0100
    0.0100    0.0100    0.0100    0.0100    0.0100    0.0100    0.0100    0.0100
    0.0100    0.0100    0.0100    0.0100    0.0100    0.0100    0.0100    0.0100
    0.0100    0.0100    0.0100    0.0100    0.0100    0.0100    0.0100    0.0100
    0.0100    0.0100    0.0100    0.0100    0.0100    0.0100    0.0100    0.0100
    0.0100    0.0100    0.0100    0.0100    0.0100    0.0100    0.0100    0.0100
    0.0100    0.0100    0.0100    0.0100    0.0100    0.0100    0.0100    0.0100
    0.0100    0.0100    0.0100    0.0100    0.0100    0.0100    0.0100    0.0100
    0.0100    0.0100    0.0100    0.0100    0.0100    0.0100    0.0100    0.0100
    0.0100    0.0100    0.0100    0.0100    0.0100    0.0100    0.0100    0.0100
    0.0100    0.0100    0.0100    0.0100    0.0100    0.0100    0.0100    0.0100
    0.0100    0.0100    0.0100    0.0100    0.0100    0.0100    0.0100    0.0100
    0.0100    0.0100    0.0100    0.0100    0.0100    0.0100    0.0100    0.0100
    0.0100    0.0100    0.0100    0.0100    0.0100    0.0100    0.0100    0.0100
    0.0100    0.0100    0.0100    0.0100    0.0100    0.0100    0.0100    0.0100
    0.0100    0.0100    0.0100    0.0100    0.0100    0.0100    0.0100    0.0100
    0.0100    0.0100    0.0100    0.0100    0.0100    0.0100    0.0100    0.0100
    0.0100    0.0100    0.0100    0.0100    0.0100    0.0100    0.0100    0.0100
    0.0100    0.0100    0.0100    0.0100    0.0100    0.0100    0.0100    0.0100
    0.0100    0.0100    0.0100    0.0100    0.0100    0.0100    0.0100    0.0100
    0.0100    0.0100    0.0100    0.0100    0.0100    0.0100    0.0100    0.0100
    0.0100    0.0100    0.0100    0.0100    0.0100    0.0100    0.0100    0.0100
    0.0100    0.0100    0.0100    0.0100    0.0100    0.0100    0.0100    0.0100
    0.0100    0.0100    0.0100    0.0100    0.0100    0.0100    0.0100    0.0100
    0.0100    0.0100    0.0100    0.0100    0.0100    0.0100    0.0100    0.0100
    0.0100    0.0100    0.0100    0.0100    0.0100    0.0100    0.0100    0.0100
    0.0100    0.0100    0.0100    0.0100    0.0100    0.0100    0.0100    0.0100
    0.0100    0.0100    0.0100    0.0100    0.0100    0.0100    0.0100    0.0100
    0.0100    0.0100    0.0100    0.0100    0.0100    0.0100    0.0100    0.0100
    0.0100    0.0100    0.0100    0.0100    0.0100    0.0100    0.0100    0.0100
    0.0100    0.0100    0.0100    0.0100    0.0100    0.0100    0.0100    0.0100
    0.0100    0.0100    0.0100    0.0100    0.0100    0.0100    0.0100    0.0100
    0.0100    0.0100    0.0100    0.0100    0.0100    0.0100    0.0100    0.0100
    0.0100    0.0100    0.0100    0.0100    0.0100    0.0100    0.0100    0.0100
    0.0100    0.0100    0.0100    0.0100    0.0100    0.0100    0.0100    0.0100
    0.0100    0.0100    0.0100    0.0100    0.0100    0.0100    0.0100    0.0100
    0.0100    0.0100    0.0100    0.0100    0.0100    0.0100    0.0100    0.0100
    0.0100    0.0100    0.0100    0.0100    0.0100    0.0100    0.0100    0.0100
    0.0100    0.0100    0.0100    0.0100    0.0100    0.0100    0.0100    0.0100
    0.0100    0.0100    0.0100    0.0100    0.0100    0.0100    0.0100    0.0100
    0.0100    0.0100    0.0100    0.0100    0.0100    0.0100    0.0100    0.0100
    0.0100    0.0100    0.0100    0.0100    0.0100    0.0100    0.0100    0.0100
    0.0100    0.0100    0.0100    0.0100    0.0100    0.0100    0.0100    0.0100
    0.0100    0.0100    0.0100    0.0100    0.0100    0.0100    0.0100    0.0100
    0.0100    0.0100    0.0100    0.0100    0.0100    0.0100    0.0100    0.0100
    0.0100    0.0100    0.0100    0.0100    0.0100    0.0100    0.0100    0.0100
    0.0100    0.0100    0.0100    0.0100    0.0100    0.0100    0.0100    0.0100
    0.0100    0.0100    0.0100    0.0100    0.0100    0.0100    0.0100    0.0100
    0.0100    0.0100    0.0100    0.0100    0.0100    0.0100    0.0100    0.0100
    0.0100    0.0100    0.0100    0.0100    0.0100    0.0100    0.0100    0.0100
    0.0100    0.0100    0.0100    0.0100    0.0100    0.0100    0.0100    0.0100
    0.0100    0.0100    0.0100    0.0100    0.0100    0.0100    0.0100    0.0100
    0.0100    0.0100    0.0100    0.0100    0.0100    0.0100    0.0100    0.0100
    0.0100    0.0100    0.0100    0.0100    0.0100    0.0100    0.0100    0.0100
    0.0100    0.0100    0.0100    0.0100    0.0100    0.0100    0.0100    0.0100
    0.0100    0.0100    0.0100    0.0100    0.0100    0.0100    0.0100    0.0100
    0.0100    0.0100    0.0100    0.0100    0.0100    0.0100    0.0100    0.0100
    0.0100    0.0100    0.0100    0.0100    0.0100    0.0100    0.0100    0.0100
    0.0100    0.0100    0.0100    0.0100    0.0100    0.0100    0.0100    0.0100
    0.0100    0.0100    0.0100    0.0100    0.0100    0.0100    0.0100    0.0100
    0.0100    0.0100    0.0100    0.0100    0.0100    0.0100    0.0100    0.0100
    0.0100    0.0100    0.0100    0.0100    0.0100    0.0100    0.0100    0.0100
    0.0100    0.0100    0.0100    0.0100    0.0100    0.0100    0.0100    0.0100
    0.0100    0.0100    0.0100    0.0100    0.0100    0.0100    0.0100    0.0100
    0.0100    0.0100    0.0100    0.0100    0.0100    0.0100    0.0100    0.0100
    0.0100    0.0100    0.0100    0.0100    0.0100    0.0100    0.0100    0.0100
    0.0100    0.0100    0.0100    0.0100    0.0100    0.0100    0.0100    0.0100
    0.0100    0.0100    0.0100    0.0100    0.0100    0.0100    0.0100    0.0100
    0.0100    0.0100    0.0100    0.0100    0.0100    0.0100    0.0100    0.0100
    0.0100    0.0100    0.0100    0.0100    0.0100    0.0100    0.0100    0.0100
    0.0100    0.0100    0.0100    0.0100    0.0100    0.0100    0.0100    0.0100
    0.0100    0.0100    0.0100    0.0100    0.0100    0.0100    0.0100    0.0100
    0.0100    0.0100    0.0100    0.0100    0.0100    0.0100    0.0100    0.0100
    0.0100    0.0100    0.0100    0.0100    0.0100    0.0100    0.0100    0.0100
    0.0100    0.0100    0.0100    0.0100    0.0100    0.0100    0.0100    0.0100
    0.0100    0.0100    0.0100    0.0100    0.0100    0.0100    0.0100    0.0100
    0.0100    0.0100    0.0100    0.0100    0.0100    0.0100    0.0100    0.0100
    0.0100    0.0100    0.0100    0.0100    0.0100    0.0100    0.0100    0.0100
    0.0100    0.0100    0.0100    0.0100    0.0100    0.0100    0.0100    0.0100
    0.0100    0.0100    0.0100    0.0100    0.0100    0.0100    0.0100    0.0100
    0.0100    0.0100    0.0100    0.0100    0.0100    0.0100    0.0100    0.0100
    0.0100    0.0100    0.0100    0.0100    0.0100    0.0100    0.0100    0.0100
    0.0100    0.0100    0.0100    0.0100    0.0100    0.0100    0.0100    0.0100
    0.0100    0.0100    0.0100    0.0100    0.0100    0.0100    0.0100    0.0100
    0.0100    0.0100    0.0100    0.0100    0.0100    0.0100    0.0100    0.0100
    0.0100    0.0100    0.0100    0.0100    0.0100    0.0100    0.0100    0.0100
    0.0100    0.0100    0.0100    0.0100    0.0100    0.0100    0.0100    0.0100
    0.0100    0.0100    0.0100    0.0100    0.0100    0.0100    0.0100    0.0100
    0.0100    0.0100    0.0100    0.0100    0.0100    0.0100    0.0100    0.0100
    0.0100    0.0100    0.0100    0.0100    0.0100    0.0100    0.0100    0.0100
    0.0100    0.0100    0.0100    0.0100    0.0100    0.0100    0.0100    0.0100
    0.0100    0.0100    0.0100    0.0100    0.0100    0.0100    0.0100    0.0100
    0.0100    0.0100    0.0100    0.0100    0.0100    0.0100    0.0100    0.0100
    0.0100    0.0100    0.0100    0.0100    0.0100    0.0100    0.0100    0.0100
    0.0100    0.0100    0.0100    0.0100    0.0100    0.0100
   </PP_RAB>
 </PP_MESH>
  <PP_LOCAL type="real"  size=" 758" columns="4">
   -1.7471814179E+01   -1.7472730758E+01   -1.7475338597E+01   -1.7479271814E+01
   -1.7483971577E+01   -1.7488763455E+01   -1.7492937289E+01   -1.7495819749E+01
   -1.7496829705E+01   -1.7495512068E+01   -1.7491550706E+01   -1.7484764400E+01
   -1.7475091256E+01   -1.7462566916E+01   -1.7447300933E+01   -1.7429454328E+01
   -1.7409220104E+01   -1.7386807442E+01   -1.7362429641E+01   -1.7336295432E+01
   -1.7308603115E+01   -1.7279536916E+01   -1.7249265013E+01   -1.7217938737E+01
   -1.7185692580E+01   -1.7152644714E+01   -1.7118897796E+01   -1.7084539930E+01
   -1.7049645672E+01   -1.7014277025E+01   -1.6978484379E+01   -1.6942307400E+01
   -1.6905775831E+01   -1.6868910249E+01   -1.6831722749E+01   -1.6794217591E+01
   -1.6756391808E+01   -1.6718235797E+01   -1.6679733895E+01   -1.6640864959E+01
   -1.6601602945E+01   -1.6561917513E+01   -1.6521774648E+01   -1.6481137297E+01
   -1.6439966038E+01   -1.6398219765E+01   -1.6355856390E+01   -1.6312833555E+01
   -1.6269109346E+01   -1.6224642997E+01   -1.6179395571E+01   -1.6133330611E+01
   -1.6086414744E+01   -1.6038618223E+01   -1.5989915407E+01   -1.5940285152E+01
   -1.5889711124E+01   -1.5838182019E+01   -1.5785691683E+01   -1.5732239147E+01
   -1.5677828565E+01   -1.5622469073E+01   -1.5566174570E+01   -1.5508963430E+01
   -1.5450858167E+01   -1.5391885045E+01   -1.5332073673E+01   -1.5271456566E+01
   -1.5210068711E+01   -1.5147947128E+01   -1.5085130453E+01   -1.5021658529E+01
   -1.4957572036E+01   -1.4892912146E+01   -1.4827720211E+01   -1.4762037489E+01
   -1.4695904909E+01   -1.4629362865E+01   -1.4562451052E+01   -1.4495208329E+01
   -1.4427672614E+01   -1.4359880802E+01   -1.4291868712E+01   -1.4223671049E+01
   -1.4155321387E+01   -1.4086852163E+01   -1.4018294684E+01   -1.3949679145E+01
   -1.3881034645E+01   -1.3812389221E+01   -1.3743769872E+01   -1.3675202589E+01
   -1.3606712393E+01   -1.3538323353E+01   -1.3470058627E+01   -1.3401940476E+01
   -1.3333990295E+01   -1.3266228630E+01   -1.3198675196E+01   -1.3131348889E+01
   -1.3064267795E+01   -1.2997449202E+01   -1.2930909599E+01   -1.2864664678E+01
   -1.2798729333E+01   -1.2733117653E+01   -1.2667842918E+01   -1.2602917584E+01
   -1.2538353278E+01   -1.2474160779E+01   -1.2410350007E+01   -1.2346930005E+01
   -1.2283908920E+01   -1.2221293992E+01   -1.2159091529E+01   -1.2097306895E+01
   -1.2035944489E+01   -1.1975007732E+01   -1.1914499054E+01   -1.1854419881E+01
   -1.1794770623E+01   -1.1735550678E+01   -1.1676758422E+01   -1.1618391218E+01
   -1.1560445425E+01   -1.1502916414E+01   -1.1445798592E+01   -1.1389085433E+01
   -1.1332769514E+01   -1.1276842566E+01   -1.1221295529E+01   -1.1166118617E+01
   -1.1111301390E+01   -1.1056832836E+01   -1.1002701462E+01   -1.0948895392E+01
   -1.0895402466E+01   -1.0842210350E+01   -1.0789306649E+01   -1.0736679017E+01
   -1.0684315275E+01   -1.0632203523E+01   -1.0580332252E+01   -1.0528690445E+01
   -1.0477267684E+01   -1.0426054236E+01   -1.0375041141E+01   -1.0324220279E+01
   -1.0273584439E+01   -1.0223127360E+01   -1.0172843772E+01   -1.0122729422E+01
   -1.0072781076E+01   -1.0022996526E+01   -9.9733745717E+00   -9.9239149925E+00
   -9.8746185150E+00   -9.8254867648E+00   -9.7765222121E+00   -9.7277281104E+00
   -9.6791084287E+00   -9.6306677794E+00   -9.5824113431E+00   -9.5343447909E+00
   -9.4864742068E+00   -9.4388060100E+00   -9.3913468782E+00   -9.3441036741E+00
   -9.2970833744E+00   -9.2502930027E+00   -9.2037395668E+00   -9.1574300004E+00
   -9.1113711104E+00   -9.0655695289E+00   -9.0200316708E+00   -8.9747636961E+00
   -8.9297714783E+00   -8.8850605773E+00   -8.8406362170E+00   -8.7965032677E+00
   -8.7526662330E+00   -8.7091292402E+00   -8.6658960344E+00   -8.6229699765E+00
   -8.5803540433E+00   -8.5380508307E+00   -8.4960625591E+00   -8.4543910810E+00
   -8.4130378898E+00   -8.3720041305E+00   -8.3312906113E+00   -8.2908978159E+00
   -8.2508259174E+00   -8.2110747915E+00   -8.1716440311E+00   -8.1325329601E+00
   -8.0937406486E+00   -8.0552659264E+00   -8.0171073974E+00   -7.9792634540E+00
   -7.9417322896E+00   -7.9045119127E+00   -7.8676001592E+00   -7.8309947045E+00
   -7.7946930755E+00   -7.7586926618E+00   -7.7229907264E+00   -7.6875844164E+00
   -7.6524707723E+00   -7.6176467382E+00   -7.5831091707E+00   -7.5488548481E+00
   -7.5148804791E+00   -7.4811827116E+00   -7.4477581414E+00   -7.4146033208E+00
   -7.3817147678E+00   -7.3490889744E+00   -7.3167224166E+00   -7.2846115630E+00
   -7.2527528848E+00   -7.2211428658E+00   -7.1897780121E+00   -7.1586548625E+00
   -7.1277699987E+00   -7.0971200560E+00   -7.0667017331E+00   -7.0365118024E+00
   -7.0065471198E+00   -6.9768046342E+00   -6.9472813960E+00   -6.9179745652E+00
   -6.8888814190E+00   -6.8599993580E+00   -6.8313259109E+00   -6.8028587396E+00
   -6.7745956409E+00   -6.7465345491E+00   -6.7186735353E+00   -6.6910108067E+00
   -6.6635447039E+00   -6.6362736971E+00   -6.6091963805E+00   -6.5823114665E+00
   -6.5556177777E+00   -6.5291142381E+00   -6.5027998639E+00   -6.4766737532E+00
   -6.4507350743E+00   -6.4249830549E+00   -6.3994169692E+00   -6.3740361264E+00
   -6.3488398578E+00   -6.3238275042E+00   -6.2989984043E+00   -6.2743518813E+00
   -6.2498872323E+00   -6.2256037163E+00   -6.2015005444E+00   -6.1775768679E+00
   -6.1538317660E+00   -6.1302642501E+00   -6.1068732398E+00   -6.0836575634E+00
   -6.0606159328E+00   -6.0377469615E+00   -6.0150491689E+00   -5.9925209734E+00
   -5.9701607152E+00   -5.9479666730E+00   -5.9259370772E+00   -5.9040701294E+00
   -5.8823640192E+00   -5.8608169481E+00   -5.8394271501E+00   -5.8181928833E+00
   -5.7971124358E+00   -5.7761841613E+00   -5.7554064358E+00   -5.7347776756E+00
   -5.7142962796E+00   -5.6939606687E+00   -5.6737692834E+00   -5.6537205904E+00
   -5.6338130857E+00   -5.6140452836E+00   -5.5944157203E+00   -5.5749229500E+00
   -5.5555655476E+00   -5.5363421080E+00   -5.5172512452E+00   -5.4982915926E+00
   -5.4794618018E+00   -5.4607605433E+00   -5.4421865053E+00   -5.4237383942E+00
   -5.4054149336E+00   -5.3872148643E+00   -5.3691369441E+00   -5.3511799475E+00
   -5.3333426650E+00   -5.3156239035E+00   -5.2980224857E+00   -5.2805372495E+00
   -5.2631670486E+00   -5.2459107513E+00   -5.2287672409E+00   -5.2117354152E+00
   -5.1948141864E+00   -5.1780024807E+00   -5.1612992380E+00   -5.1447034122E+00
   -5.1282139703E+00   -5.1118298926E+00   -5.0955501726E+00   -5.0793738161E+00
   -5.0632998420E+00   -5.0473272812E+00   -5.0314551771E+00   -5.0156825848E+00
   -5.0000085714E+00   -4.9844322157E+00   -4.9689526076E+00   -4.9535688486E+00
   -4.9382800512E+00   -4.9230853388E+00   -4.9079838456E+00   -4.8929747163E+00
   -4.8780571061E+00   -4.8632301805E+00   -4.8484931151E+00   -4.8338450953E+00
   -4.8192853166E+00   -4.8048129840E+00   -4.7904273119E+00   -4.7761275243E+00
   -4.7619128545E+00   -4.7477825446E+00   -4.7337358459E+00   -4.7197720185E+00
   -4.7058903312E+00   -4.6920900612E+00   -4.6783704944E+00   -4.6647309248E+00
   -4.6511706550E+00   -4.6376889952E+00   -4.6242852639E+00   -4.6109587873E+00
   -4.5977088995E+00   -4.5845349420E+00   -4.5714362641E+00   -4.5584122224E+00
   -4.5454621806E+00   -4.5325855100E+00   -4.5197815887E+00   -4.5070498019E+00
   -4.4943895418E+00   -4.4818002072E+00   -4.4692812039E+00   -4.4568319441E+00
   -4.4444518467E+00   -4.4321403367E+00   -4.4198968460E+00   -4.4077208122E+00
   -4.3956116795E+00   -4.3835688979E+00   -4.3715919236E+00   -4.3596802187E+00
   -4.3478332511E+00   -4.3360504944E+00   -4.3243314281E+00   -4.3126755371E+00
   -4.3010823119E+00   -4.2895512485E+00   -4.2780818483E+00   -4.2666736181E+00
   -4.2553260696E+00   -4.2440387202E+00   -4.2328110919E+00   -4.2216427121E+00
   -4.2105331130E+00   -4.1994818318E+00   -4.1884884105E+00   -4.1775523958E+00
   -4.1666733394E+00   -4.1558507973E+00   -4.1450843303E+00   -4.1343735038E+00
   -4.1237178875E+00   -4.1131170557E+00   -4.1025705869E+00   -4.0920780641E+00
   -4.0816390744E+00   -4.0712532090E+00   -4.0609200637E+00   -4.0506392378E+00
   -4.0404103352E+00   -4.0302329633E+00   -4.0201067339E+00   -4.0100312623E+00
   -4.0000061680E+00   -3.9900310739E+00   -3.9801056070E+00   -3.9702293979E+00
   -3.9604020807E+00   -3.9506232933E+00   -3.9408926772E+00   -3.9312098772E+00
   -3.9215745418E+00   -3.9119863228E+00   -3.9024448754E+00   -3.8929498584E+00
   -3.8835009335E+00   -3.8740977660E+00   -3.8647400243E+00   -3.8554273801E+00
   -3.8461595080E+00   -3.8369360861E+00   -3.8277567953E+00   -3.8186213196E+00
   -3.8095293461E+00   -3.8004805647E+00   -3.7914746685E+00   -3.7825113533E+00
   -3.7735903178E+00   -3.7647112635E+00   -3.7558738948E+00   -3.7470779189E+00
   -3.7383230456E+00   -3.7296089875E+00   -3.7209354599E+00   -3.7123021805E+00
   -3.7037088700E+00   -3.6951552514E+00   -3.6866410503E+00   -3.6781659949E+00
   -3.6697298159E+00   -3.6613322463E+00   -3.6529730217E+00   -3.6446518802E+00
   -3.6363685619E+00   -3.6281228097E+00   -3.6199143685E+00   -3.6117429858E+00
   -3.6036084110E+00   -3.5955103961E+00   -3.5874486951E+00   -3.5794230643E+00
   -3.5714332623E+00   -3.5634790495E+00   -3.5555601888E+00   -3.5476764449E+00
   -3.5398275848E+00   -3.5320133776E+00   -3.5242335941E+00   -3.5164880075E+00
   -3.5087763927E+00   -3.5010985268E+00   -3.4934541887E+00   -3.4858431592E+00
   -3.4782652212E+00   -3.4707201593E+00   -3.4632077599E+00   -3.4557278116E+00
   -3.4482801044E+00   -3.4408644303E+00   -3.4334805832E+00   -3.4261283586E+00
   -3.4188075537E+00   -3.4115179676E+00   -3.4042594011E+00   -3.3970316565E+00
   -3.3898345380E+00   -3.3826678512E+00   -3.3755314037E+00   -3.3684250044E+00
   -3.3613484639E+00   -3.3543015945E+00   -3.3472842099E+00   -3.3402961255E+00
   -3.3333371581E+00   -3.3264071261E+00   -3.3195058495E+00   -3.3126331497E+00
   -3.3057888494E+00   -3.2989727731E+00   -3.2921847465E+00   -3.2854245969E+00
   -3.2786921528E+00   -3.2719872443E+00   -3.2653097028E+00   -3.2586593612E+00
   -3.2520360534E+00   -3.2454396151E+00   -3.2388698831E+00   -3.2323266954E+00
   -3.2258098916E+00   -3.2193193125E+00   -3.2128547999E+00   -3.2064161972E+00
   -3.2000033490E+00   -3.1936161011E+00   -3.1872543003E+00   -3.1809177951E+00
   -3.1746064347E+00   -3.1683200699E+00   -3.1620585524E+00   -3.1558217352E+00
   -3.1496094725E+00   -3.1434216194E+00   -3.1372580325E+00   -3.1311185693E+00
   -3.1250030884E+00   -3.1189114496E+00   -3.1128435137E+00   -3.1067991426E+00
   -3.1007781994E+00   -3.0947805481E+00   -3.0888060538E+00   -3.0828545826E+00
   -3.0769260017E+00   -3.0710201794E+00   -3.0651369848E+00   -3.0592762880E+00
   -3.0534379605E+00   -3.0476218742E+00   -3.0418279023E+00   -3.0360559190E+00
   -3.0303057994E+00   -3.0245774193E+00   -3.0188706559E+00   -3.0131853869E+00
   -3.0075214911E+00   -3.0018788482E+00   -2.9962573390E+00   -2.9906568447E+00
   -2.9850772479E+00   -2.9795184317E+00   -2.9739802803E+00   -2.9684626787E+00
   -2.9629655127E+00   -2.9574886690E+00   -2.9520320351E+00   -2.9465954994E+00
   -2.9411789509E+00   -2.9357822798E+00   -2.9304053767E+00   -2.9250481333E+00
   -2.9197104419E+00   -2.9143921957E+00   -2.9090932887E+00   -2.9038136154E+00
   -2.8985530715E+00   -2.8933115531E+00   -2.8880889572E+00   -2.8828851815E+00
   -2.8777001244E+00   -2.8725336852E+00   -2.8673857638E+00   -2.8622562607E+00
   -2.8571450774E+00   -2.8520521157E+00   -2.8469772786E+00   -2.8419204693E+00
   -2.8368815920E+00   -2.8318605515E+00   -2.8268572533E+00   -2.8218716034E+00
   -2.8169035087E+00   -2.8119528765E+00   -2.8070196151E+00   -2.8021036330E+00
   -2.7972048398E+00   -2.7923231453E+00   -2.7874584603E+00   -2.7826106960E+00
   -2.7777797643E+00   -2.7729655776E+00   -2.7681680490E+00   -2.7633870922E+00
   -2.7586226216E+00   -2.7538745519E+00   -2.7491427987E+00   -2.7444272779E+00
   -2.7397279062E+00   -2.7350446008E+00   -2.7303772794E+00   -2.7257258604E+00
   -2.7210902625E+00   -2.7164704053E+00   -2.7118662086E+00   -2.7072775931E+00
   -2.7027044796E+00   -2.6981467898E+00   -2.6936044459E+00   -2.6890773703E+00
   -2.6845654864E+00   -2.6800687177E+00   -2.6755869883E+00   -2.6711202231E+00
   -2.6666683471E+00   -2.6622312861E+00   -2.6578089661E+00   -2.6534013139E+00