128
Lattice="11.641 0.000 0.000 0.000 11.654 0.000 0.000 0.000 23.162" Properties=species:S:1:pos:R:3:forces:R:3 energy=-666.51208496 virial="-213.27999878 0.07296574 -2.85572743 0.07296574 -214.18402100 2.08872175 -2.85572743 2.08872175 -207.00814819"
Si     1.47395562     4.39933935     1.31450008     0.13916376    -0.19856849     0.56576586
Si     5.76907659     8.76550294    11.58889488     0.33206519    -0.07220529    -0.19382378
Si     5.85775181     2.81573237    17.28423575    -0.55063188     0.50608778     0.52007979
Si     5.80394059     2.90322354    11.74190297     0.39258432     0.20840116    -0.82701570
Si     0.04042738     8.75153493    17.37768481    -0.05824245    -0.12064852     0.07794707
Si    -0.02898902     8.75335764    11.56521539     0.29249781     0.41889435     0.04386405
Si     0.08230230     2.92484496    17.30282906    -0.86770868     0.35065496     0.43846464
Si     0.05523355     2.80176325    11.60675042    -0.12044093     0.54023969    -0.33971173
Si     7.48690021     7.23053846    21.64604160    -0.85778832     0.32950926     0.53001142
Si     7.22371987     7.33872541    15.95683389     0.36641166    -0.05246475    -0.18203534
Si     7.26974284     1.48565871    21.78790888    -0.16568232     0.09357091    -0.47132674
Si     7.33108144     1.41839211    15.92856592    -0.12866898     0.02592761    -0.14630157
Si     1.35269087     7.29374571    21.86033752     0.27990124     0.04541560    -0.49663314
Si     1.48203756     7.28964719    15.92177911    -0.06426094     0.17333628     0.05447445
Si     1.33837307     4.40841680    18.85093458     0.47885418    -0.17771643     0.11395679
Si     1.32415854     1.36063174    21.61019352     0.41610569     0.42992353     0.46181402
Si     5.88251544     5.99930591    20.24710575    -0.31164283    -0.59951133    -0.17999908
Si     5.89587765     5.72614733    14.53360489    -0.48591423     0.54901910    -0.19930059
Si     5.80563848    11.74210943    20.31107088    -0.30012870    -0.12553787     0.27178371
Si     5.81749678    11.59000055    14.50267277     0.08077096     0.47476715    -0.13815364
Si    -0.05470975     5.85734194    20.36983973     0.05842252    -0.11325984    -0.08844320
Si     0.05800857     5.84385886    14.55506689    -0.41453040     0.33017308    -0.57112503
Si    -0.15683575    11.64775420    20.20306698     0.29331243     0.10450412     0.15760845
Si    -0.07687136    11.68055599    14.45321154     0.14333418     0.18451044    -0.00036578
Si     7.25138989    10.27696609    18.92872177     0.19452120    -0.25998339    -0.44989175
Si     7.24104274    10.20203907    12.99346200    -0.01386203    -0.03895159     0.23464164
Si     7.19455319     4.45680681    18.72225351     0.04690084     0.01801281     0.11371259
Si     7.38003961     4.40449887    12.97141351    -0.05846155    -0.13658765     0.56633610
Si     1.42586437    10.18367078    18.87492550     0.01077387     0.23484406    -0.24177146
Si     1.43399296     1.46108372    15.86415848     0.14528202    -0.25545833     0.15757826
Si     1.43281520    10.36585226    12.92482451    -0.16325289    -0.60911912     0.10820733
Si     5.82547136     8.77667471    17.40611192    -0.35513812     0.35397506     0.07687585
Si     8.70734172     5.94207288    17.38715392     0.05769579    -0.13348065     0.06856271
Si     8.57175349     3.05732105    20.19991901     0.58411074    -0.28253987     0.58230293
Si     8.78195948     2.99707551    14.55460290    -0.23834112    -0.03786930    -0.29065776
Si     2.83345859     8.80521918    20.37653360    -0.05238616    -0.10247070     0.01137541
Si     2.81866975     8.84057909    14.38766085     0.39014894    -0.11404128     0.41158003
Si     2.87452295     2.97206804    20.31148036    -0.24297093    -0.19930272    -0.36296684
Si     2.85464561     2.85887459    14.38913342     0.00847403     0.34542006     0.21957986
Si    10.24052498     7.29544594    18.86514876    -0.16939273     0.14981748    -0.24526978
Si    10.14859256     7.38623987    13.05392595     0.72973049    -0.49226993     0.02903085
Si    10.06547916     1.63245666    18.81866031     0.41978019    -0.50174022    -0.18770808
Si    10.08123711     1.52055439    13.04384104     0.39661238    -0.35275972     0.02508889
Si     4.29163107     7.42271126    18.88460175     0.17801183    -0.47653711    -0.17477989
Si     4.35558029     7.32014829    13.08670263     0.19375800    -0.17114455    -0.07604471
Si     4.29334889     1.51773835    18.87279675     0.48315147    -0.23266858    -0.28400123
Si     4.42032921     4.40854560    21.62978503    -0.03966517     0.16659433     0.26228905
Si     4.27122803     4.25387248    15.93350684     0.40197039     0.18713611    -0.18568127
Si     8.95989524     5.81180909    11.54523826    -0.83722991     0.10053822     0.24190885
Si     8.74374269    11.69418487    17.43389321    -0.15801513    -0.01287724    -0.05268369
Si     8.62256393    11.66869806    11.57478422     0.47613221     0.01194551    -0.06916887
Si     2.82480876     5.75996386    17.40767289     0.36741823     0.46932137     0.01476940
Si     3.02399341     5.81856376    11.61228223    -0.34552392     0.35956866    -0.29414320
Si     2.96472839    11.62498834    17.41041259    -0.62994409     0.42587924     0.03150659
Si     2.93736576    11.70173502    11.43343099     0.10416271     0.04450449     0.26236245
Si    10.19610439    10.16449436    21.75793441    -0.30452999    -0.00906262    -0.03284556
Si    10.20016995    10.22346173    15.97795771    -0.01655584     0.04691008    -0.14047912
Si    10.18057062     4.37662070    21.82977539    -0.37295192    -0.03966476    -0.49196610
Si    10.17190316     4.52818634    15.98582088     0.30121970    -0.60363245    -0.17538488
Si     4.28912779    10.25092078    21.81579741     0.11835419    -0.06706268    -0.43075782
Si     4.33384648    10.27427855    15.93303969     0.14500023    -0.60698771    -0.03475737
Si     4.36101454     1.44253759    13.05761495    -0.05326659    -0.21598262    -0.13539685
Si     1.42214750     4.43796267    12.93069653     0.29009837    -0.46063042     0.54820305
Si     8.83949009     8.62626080     8.66747386     0.08229382     0.14697474     0.09119953
Si     8.68709314     8.76632881     2.84089186     0.20387134     0.02762231     0.41708815
Si     0.02299822     8.70079443     5.74471498    -0.00597497     0.03746498    -0.02360852
Si    -0.15163509     8.63279808     0.15536739     0.35780922     0.40433076    -0.30367166
Si    -0.10928163     2.92873406     5.81336412     0.19604762     0.13940439     0.10569885
Si     0.01820038     2.88400062    -0.06078828    -0.37108105    -0.10335708     0.24597816
Si     7.41339183     7.29066843    10.20366091    -0.32188776    -0.25080985    -0.32249880
Si     7.42121616     7.24278576     4.32802484    -0.65585417    -0.16136193     0.17810720
Si     7.25016600     1.49972516    10.16065178     0.03252121     0.00687106     0.13044001
Si     7.39551248     1.29979585     4.29528516    -0.32209894     0.50498343     0.20684835
Si     1.55059402     7.41180611    10.15211799     0.04880159    -0.54573911    -0.03976095
Si     1.47980339     7.27663238     4.34563077     0.28140721    -0.20517404     0.03455500
Si     1.53467266     1.51192422    10.00995594    -0.18837111    -0.36583436     0.40625793
Si     1.38380514     1.54197834     4.40868360     0.13302980    -0.56576943    -0.35534006
Si     5.91799674     2.77790174     5.76522605    -0.30208430    -0.13894090     0.15209183
Si     5.90685883     5.80643605     8.69890539    -0.17816770     0.15639600     0.04561818
Si     5.97061475    11.71913348     8.63730608    -0.27843165    -0.84317958     0.06827585
Si     5.82282360    11.66834045     2.80307302    -0.07164693    -0.28249529     0.11935458
Si     0.12923724     5.83805422     8.78328811     0.01759943    -0.27149898    -0.20432015
Si     0.10661613     5.82524738     2.96445396    -0.63170195    -0.07343908    -0.42142087
Si    -0.00634662    11.61243745     8.71054133     0.16970009     0.39938295    -0.47971731
Si    -0.07263803    11.75161411     2.85366343     0.32655108    -0.29189420     0.32653773
Si     7.39548054     9.99566484     7.20753817    -0.14504838     0.67466688    -0.02046092
Si     7.21221418    10.16664124     1.36231768    -0.04868265    -0.07257357     0.18006828
Si     7.22734925     4.31783612     7.24936028     0.48765337    -0.05797774    -0.08223215
Si     7.16638034     4.34003955     1.55376108     0.37426680    -0.20747398    -0.15134409
Si     1.38245037    10.21803528     7.10768954     0.49196857    -0.26224363     0.57750988
Si     1.33092609    10.15818389     1.48607117     0.23912343     0.10729201     0.02096381
Si     1.42457556     4.28493484     7.28141252     0.05414788     0.07155101     0.01140033
Si     5.80849725     5.74663921     3.02648459    -0.00154231     0.30063009    -0.39796597
Si     5.76714332     8.71301602    -0.06878907     0.55856037     0.05558813    -0.01542509
Si     5.80111382     2.92503392     0.00635003    -0.21350500     0.03969712     0.05718151
Si     5.89017925     8.59308849     5.75050439    -0.18079931     0.20771736    -0.05857870
Si     8.71738030     2.90609272     8.71587373     0.03623716     0.15231998     0.04727305
Si     8.75523539     5.75141211     5.82167455     0.05064394     0.35563684     0.15432064
Si     8.75567442     2.91410111     2.94371894    -0.39623719    -0.07914240    -0.23445770
Si     2.98748968     8.76315492     8.55031340    -0.40495777     0.00243910     0.14835815
Si     2.93650183     8.71791805     2.83479353    -0.11972459    -0.06393147     0.10040812
Si     3.03912588     2.91177818     8.62933022    -0.16896974    -0.09563187     0.14197254
Si     2.84189566     2.87245519     2.89116794     0.16434990     0.23392233    -0.11081386
Si    10.36177026     7.16235365     7.28336068    -0.59710824     0.29480508    -0.20510352
Si    10.10300904     7.21790305     1.62185624     0.25356489    -0.10616438    -0.45304215
Si    10.15651765     1.49251463     7.30510655     0.09089416    -0.41973728    -0.23851900
Si    10.07723457     1.45266248     1.45778068     0.41419244     0.11172956    -0.31559893
Si     4.31387543     7.12207631     7.17294647     0.39886495     0.24773258     0.09173162
Si     4.43596572     7.27667060     1.37887547    -0.36736983    -0.27397174     0.38344321
Si     4.41878001     1.29620873     7.24488316     0.13478585     0.70270431    -0.31581664
Si     4.26166502     1.46610610     1.39508197     0.16913413    -0.10760100     0.20010109
Si     8.69389332     5.72907757     0.15560560     0.17707309     0.32932377    -0.30269587
Si     4.38528004     4.18090380     4.39819993    -0.21628609     0.32086593    -0.16905917
Si     8.85146803    11.59123816     5.78575325    -0.34478995    -0.09576922     0.14235912
Si     8.65405431    11.57851517    -0.00824115     0.29508170     0.37262380    -0.01267028
Si     2.80732108     5.59982998     5.78722038     0.55197990     0.67008948    -0.08028919
Si     2.96413886     5.85658558    -0.10100886    -0.10115436    -0.10007372     0.41108412
Si     2.95402864    11.58040900     5.78258533    -0.21310760     0.21839064    -0.35659343
Si     2.76438940    11.62240131     0.04435339     0.05738597     0.08593763    -0.25548899
Si    10.20235639    10.18794924    10.09055559    -0.25825226    -0.05614834     0.28191894
Si    10.25985628    10.24028736     4.29289725    -0.31204191    -0.34034055     0.02251844
Si    10.30876440     4.28804509    10.13026280    -0.06785189     0.21837230     0.07509113
Si    10.11328937     4.44896617     4.32029220     0.61581546    -0.57828540     0.21194507
Si     4.41074107    10.25497714     9.99147139     0.14221467    -0.16767570     0.30697405
Si     4.42436349    10.13076652     4.24890931    -0.03715885     0.09508029     0.31013775
Si     4.49878382     4.39376927    10.15783791    -0.34234881    -0.25824660     0.11264010
Si     8.76464007     8.81844911    14.46887013    -0.49140471    -0.13334501     0.18348321
Si     8.82153813     8.75711540    20.24521920    -0.19153196     0.07661601     0.21446797
128
Lattice="10.378 0.000 0.000 0.000 10.271 0.000 0.000 0.000 21.405" Properties=species:S:1:pos:R:3:forces:R:3 energy=-664.89276123 virial="245.26524353 -5.76618385 24.71806908 -5.76618385 257.86499023 -32.46842194 24.71806908 -32.46842194 231.23538208"
Si     1.30747545     3.74131306     1.42528960    -0.62672091     0.64968508    -2.05402875
Si     5.30088228     7.61361247    10.54501471     1.35282707    -0.52885616     1.31304979
Si     4.90821212     2.71618132    16.14873928     2.13692093    -0.46410322    -0.62091142
Si     5.45706062     2.72804483    10.64378224    -0.64909935    -0.22434455     1.51469648
Si     0.02784609     7.81013730    16.00870887    -0.58562839     0.29733878     0.36581042
Si     0.21214032     7.90110628    10.57758322    -0.63844800    -1.17445481    -0.03475777
Si    -0.28008205     2.82661752    16.19037382     2.18728161    -0.57781821    -0.14871752
Si     0.09491245     2.59748425    10.59928588     0.51235175    -0.25040376     0.81666601
Si     6.50424607     6.35890496    20.11045240    -0.92400014     0.00444193    -1.18300998
Si     6.32193788     6.56814933    14.77931762     0.83370328     0.58655262     0.14474110
Si     6.28856784     1.49266098    19.99768290    -0.35363227    -0.79560745     1.04207778
Si     6.48599812     1.45357075    14.74948428    -1.31667829    -0.31791586     0.41893733
Si     1.12487963     6.45314936    20.20155541     0.53551286     0.27064922     0.29168573
Si     1.38125957     6.65170698    14.70296706    -0.99346328    -1.61087465    -0.07482573
Si     1.25234170     3.97020491    17.53717281    -0.32821107     0.77275026    -1.43042445
Si     1.17364431     1.38830392    20.11414447    -0.45852882    -0.30812126    -0.91244817
Si     5.01844694     5.18457432    18.59307219     1.70488381     0.36844951     1.29920125
Si     5.07311784     5.33430177    13.40088295     1.45347691    -1.81247640     1.71932471
Si     4.95922885    10.34507253    18.86891523     1.67885518    -0.10192193    -0.85396892
Si     5.16569766    10.37239592    13.33097555    -0.50606132    -0.02162238     0.64352620
Si    -0.14419560     5.16508926    18.87752212     0.05247966     0.09796330    -0.52842087
Si     0.05491360     5.24105752    13.28679622     1.38987267    -0.55869102     1.03792572
Si    -0.23770845    10.39282351    18.75614828     1.16414833    -0.66849816     1.32794738
Si    -0.07089755    10.38071388    13.33916344     0.98808390    -0.98986638     0.46747237
Si     6.43216963     9.11237149    17.48535572    -0.11305451     0.63811773     0.62159747
Si     6.45545337     9.00390560    12.05941144    -0.54884845     0.46874431    -1.13141847
Si     6.37915018     4.02116057    17.28313153     0.84754407    -0.68247384     0.26562726
Si     6.55574186     4.01462364    12.36219624    -0.97335386     0.06780504    -1.88657928
Si     1.12769952     9.22531736    17.38273568    -0.25883001    -1.25630379     1.07671118
Si     1.11618725     1.40600384    14.75122203    -0.71732694     1.58944309    -0.49475974
Si     1.35560788     9.12055250    11.98804275     0.39280820     0.70821846     0.78409791
Si     5.10629526     7.95181309    16.15845741     0.27276933    -1.96209204     0.85836965
Si     7.79973678     5.31703255    16.02658467     0.12235101     0.01828568     0.08373846
Si     7.66777845     2.66628611    18.78133305    -0.89213586    -0.47943634    -2.68187618
Si     7.82408135     2.65545563    13.44526451     0.96099567    -1.12663233    -0.22683629
Si     2.36290846     7.84335206    18.81270045    -0.68425465    -0.17365791    -0.20745233
Si     2.61224381     7.76972081    13.32244551     0.28909957     0.66257238    -0.94646072
Si     2.45999346     2.50198827    18.64407854     0.96013105     0.40244865     0.90903068
Si     2.59100079     2.59107209    13.41003181     0.50359714    -1.67813385     0.33293024
Si     9.14783641     6.59937023    17.46318882    -0.65425140    -0.34550422    -0.16617852
Si     9.31568593     6.58005647    11.99465691    -1.65853047     0.96826720    -0.51953840
Si     9.01680139     1.35960355    17.41429624    -1.42378592     0.90322912    -0.07415605
Si     9.18293749     1.38591041    12.00720148    -1.04896164     1.10400391    -0.16639540
Si     3.75025360     6.59176844    17.57873249    -0.30126870     0.95768774    -1.79660368
Si     4.01535044     6.53284142    12.07908329    -1.59187675     1.28380108    -2.10086250
Si     3.88061510     1.25808692    17.39071585    -1.21333671     0.08383822    -0.07745714
Si     3.82850103     3.98080516    19.97375358    -1.20299029    -1.06047833     0.39325136
Si     3.87874008     3.88520386    14.63710462    -0.66129065     1.23878312     0.24464545
Si     7.81245097     5.16360759    10.86637322     0.96385992     0.14620562    -0.14881551
Si     7.71547374    10.37273499    16.10700957    -0.27118784    -0.05134238    -0.22049399
Si     7.83355528    10.34723579    10.79652238    -0.22529042    -0.59369493    -0.38682163
Si     2.62915706     5.30236907    16.02222580    -0.31100851    -0.79906464     0.59744680
Si     2.67075296     5.29928308    10.67682543     0.91926610    -1.73165262     1.41667879
Si     2.31858614    10.50716559    16.10782506     2.40919304    -1.09693444    -0.56786829
Si     2.77013594    10.17625605    10.52508037    -0.44316202    -0.02132209     0.23062845
Si     8.97452168     9.03324049    20.15953019     0.39487237     0.09164543    -0.24612178
Si     9.05111409     9.14767449    14.76309959    -0.15296566    -0.38983268    -0.29629475
Si     8.80059815     3.89382043    20.06857055     2.22035241     0.51357055     1.12076235
Si     9.10869899     3.98856428    14.64252568    -0.46323040     1.23884439    -0.05848965
Si     3.75945631     9.02737185    20.07283044    -0.30513167    -0.74143147     1.27752519
Si     3.81063810     8.94349609    14.77540633    -0.87322986     2.83971310    -0.73033929
Si     3.84074898     1.34934438    11.83929936     1.01564312     0.72149277     0.85082126
Si     1.43237791     3.77872760    12.05528008    -1.08945298     1.79166603    -1.32988489
Si     7.99487982     7.56640459     8.04848559    -0.29454660     0.60192543     0.35947055
Si     7.69646280     7.57922665     2.84452208     0.02638058    -0.03498333    -1.15446091
Si     0.12988826     7.54872302     5.22150336     1.10571194    -0.38035658     1.00267839
Si    -0.16044744     7.78711262     0.17115495    -0.08538782    -0.76574099    -0.21731810
Si     0.08114867     2.41476657     5.55010568     0.46317565    -0.34696341    -0.34317636
Si    -0.09863972     2.65846009     0.00394282    -0.22449176     0.80456972    -0.32832804
Si     6.64590394     6.23720477     9.25788154    -0.28849846     0.46630794     0.40812996
Si     6.37931397     6.11542060     4.00758702     1.08062053     1.35031509     1.17954338
Si     6.52907971     1.26214382     9.36428255    -0.16670993    -0.88900256    -0.53796285
Si     6.52084212     0.99660251     3.91735725    -0.16451019     0.14479494     0.18100578
Si     1.53268243     6.51977949     9.33646037    -1.60328650     0.47335833    -0.09534592
Si     1.52473617     6.21066030     3.95269757    -1.13237524    -0.65621567     0.10987051
Si     1.42092389     1.27943134     9.34688814    -0.29371253    -0.35171235    -0.81986320
Si     1.12273068     1.21587960     3.88132025     1.79116821     1.54862809     2.00028372
Si     5.34048981     2.36640081     5.29714949     0.51611394     0.75029814    -0.67290723
Si     5.24989704     5.00715168     7.98121342     1.10955572    -1.30135024     0.44168866
Si     5.36596118     9.95511165     7.95739156     1.00080240     1.33176756    -1.33166933
Si     5.07874173    10.12833754     2.60462184     0.03794258     0.67342293    -0.17399830
Si     0.36657427     5.02268172     8.14599444    -0.98244417     0.94848609    -0.29702425
Si    -0.08716474     4.93305131     2.57375203     0.87727416     0.81100726     2.03002214
Si     0.05498023    10.34401140     7.83303282     1.06968081    -1.29120076     1.02222085
Si    -0.01982583    10.20057210     2.70248572    -2.64407301    -0.41012830    -1.14970732
Si     6.80296398     8.57908939     6.41187941    -2.12521982    -1.28169036     2.99002528
Si     6.41081485     8.91829927     1.30955749     1.41536331     0.12827209     0.03864239
Si     6.65787088     3.58479018     6.68801424    -0.63157010     1.12937343    -0.15424109
Si     6.42230231     3.71328807     1.35486194    -0.57580501     0.58029389    -0.21776438
Si     1.54519967     8.85132743     6.61033155    -1.83254838     1.54071379    -1.22394919
Si     1.23537603     8.96195542     1.47225889     0.52758366    -0.61484003    -0.89764738
Si     1.44470537     3.66335907     6.81609004     0.80434477     0.29547858    -1.13833654
Si     5.09842327     4.92974013     2.76131295    -0.00623627    -0.66704619    -1.11705196
Si     5.17691987     7.71161620    -0.07740330    -1.23704720    -0.74727118     0.45837396
Si     4.93140757     2.64744440     0.03931065     0.02548009    -0.59698832    -0.00331842
Si     5.14358205     7.59643283     5.31021561     2.50599003    -0.53897619    -0.51002938
Si     7.93500064     2.52908652     8.16533429     0.68415785    -0.14676043    -0.01936398
Si     7.86304349     5.04996567     5.36980206     1.13985991    -0.47656718     0.15046108
Si     7.66036239     2.47925291     2.67994876     1.39164805    -0.16238743     0.65916872
Si     2.73981470     7.60937386     7.89631605     1.44763994    -0.47239438    -0.09672208
Si     2.60415916     7.65304636     2.62774622     0.20023882     0.20037542     0.53810674
Si     2.87719750     2.42938771     8.00672911    -0.39083204    -0.26790461     0.19930431
Si     2.51723631     2.52935066     2.65809863     0.40663040    -1.54413462     0.97230500
Si     9.37513735     6.37282779     6.81185268    -0.06605955    -1.24640393    -0.95125234
Si     9.01662044     6.23935118     1.40161426    -0.47670847     1.77588201     0.10008611
Si     8.95646797     1.14904670     6.60335701     0.14806989     1.26907325     0.93541479
Si     9.07628024     1.31653299     1.28494750    -0.64386231    -0.97719240     0.61131096
Si     4.16296219     6.30401291     6.63670594    -1.98119187    -0.34423193     1.17509651
Si     3.89831890     6.27618986     1.47494175     0.43489969     0.70357460    -1.61910844
Si     4.02766880     1.17128835     6.53919278    -0.42643201    -1.76925969     0.97324562
Si     3.67070344     1.14726853     1.34021674     0.67212057     0.05543521    -0.61284935
Si     7.67086843     5.09686489     0.09977218    -0.51393992    -0.10125531     0.31376275
Si     3.88688650     3.57156317     4.00015060     0.62315714    -0.11000653     0.84888130
Si     7.75878896    10.08188146     5.39566915     1.50878191     1.58638930    -2.73368144
Si     7.62952651    10.39903394    -0.12159513    -0.41758847    -0.00227587     1.14590979
Si     2.87059820     4.97835982     5.40700805    -1.53821182    -0.35123640     0.05260438
Si     2.51919585     5.09700261     0.09153685     0.00832606     0.36013073    -0.60666376
Si     2.66774845    10.21089813     5.03089230    -0.47841942     0.46158215     1.55201268
Si     2.29346551    10.21820035    -0.05687096     0.98575860    -0.22596011     0.40158397
Si     9.11341453     9.06477079     9.36957139     0.05331771     0.44016832    -0.73133504
Si     9.17977331     8.81785732     4.04287867    -1.01985526     0.73552406    -0.17032632
Si     9.24101204     3.99168207     9.42790827    -1.27337766    -0.13499704    -0.15699406
Si     9.30993982     3.53881996     4.04190258    -1.93513846     0.98848492    -0.12718402
Si     4.04072706     8.80301571     9.27885943    -1.18149006     0.67067420    -0.31559062
Si     4.01451954     8.79307069     4.00699080    -1.47234082     0.66805351    -1.67454767
Si     3.92751142     3.81065127     9.41406747     0.09115362     0.62898773     0.01306960
Si     7.73621032     7.84655444    13.38514936     1.11131608    -1.24340034     0.56590343
Si     7.70745157     7.80037772    18.81057310     0.03599352    -0.56316358    -0.39417076
128
Lattice="11.443 0.000 0.000 0.000 11.412 0.000 0.000 0.000 23.273" Properties=species:S:1:pos:R:3:forces:R:3 energy=-672.21557617 virial="-174.10525513 0.78476959 -1.83592713 0.78476959 -171.09043884 2.67440271 -1.83592713 2.67440271 -191.96511841"
Si     1.36528902     4.19766244     1.44261773    -0.03516514     0.09941590     0.34979799
Si     5.97028944     8.47580844    11.56145923    -0.39883086     0.27583432    -0.13858739
Si     5.61438422     3.04212619    17.48179442    -0.20422328    -0.10347244    -0.00724334
Si     5.91737618     2.97351241    11.66523436    -0.22059199    -0.43100631    -0.12004258
Si    -0.09565366     8.76288617    17.45153176     0.00028548    -0.28291917     0.04775877
Si     0.17567690     8.73540619    11.54696001    -0.06352597    -0.22379521     0.22199893
Si    -0.11985218     3.14986984    17.56197254    -0.23850673    -0.34217444    -0.36141622
Si     0.16895768     2.94978387    11.57883489    -0.18949337    -0.29223335     0.12629752
Si     6.97259063     7.10145236    21.76775226     0.18666333     0.39090839     0.61415118
Si     7.12321575     7.39130221    16.10918297    -0.16802847    -0.25859997    -0.27437392
Si     6.86631458     1.56522775    21.84854777     0.41277900    -0.25021055    -0.25845727
Si     6.96936478     1.60423701    16.06217490     0.62165213    -0.07806312    -0.31290472
Si     1.26594891     7.19971158    21.95866263    -0.09823486    -0.00768074    -0.44407272
Si     1.43645581     7.27532265    15.96833622     0.02564917     0.39333719     0.04694402
Si     1.38777869     4.49996377    18.90783954    -0.28127894    -0.25006822     0.34784377
Si     1.24996603     1.56595829    21.86084299     0.25426194    -0.21248399    -0.03770304
Si     5.57478308     5.77170994    20.35994677    -0.30261165    -0.04352624    -0.19182993
Si     5.70817276     5.93122907    14.66555444    -0.07953121    -0.17062910    -0.43691599
Si     5.56930979    11.46469568    20.40499988    -0.42570239     0.10337582     0.18872392
Si     5.62994637    11.59170231    14.55175896     0.48434618    -0.12634927    -0.09175427
Si    -0.12846908     5.84264520    20.41320392     0.00461106    -0.05033397     0.03455253
Si     0.14644410     5.85084987    14.47779205    -0.49669388     0.09446770    -0.01180394
Si    -0.16845071    11.56067176    20.52354640    -0.32189825    -0.10161380    -0.59986115
Si     0.02695185    11.54649977    14.55567856    -0.25473335     0.18905927    -0.06380744
Si     7.05780529    10.16424681    19.03083039    -0.04528099    -0.36804712    -0.39860791
Si     7.16992552    10.07827422    13.09290151     0.17766756    -0.12993124     0.09189678
Si     7.12520131     4.44384133    18.85864309    -0.55538821     0.14887986    -0.04748785
Si     7.16410154     4.41483500    13.23437065     0.34362355     0.08304422    -0.12447925
Si     1.21497973    10.18065413    18.98106273     0.17554219     0.00368821    -0.16224834
Si     1.18917311     1.74619818    16.04963699     0.87731797    -0.82372522    -0.08102322
Si     1.55970162    10.13836775    13.09426258    -0.29455626    -0.03728621    -0.25060374
Si     5.59049660     8.76181664    17.56069234     0.09937241     0.27941418    -0.17722768
Si     8.56825332     5.93555658    17.43907411    -0.13703853    -0.18073016     0.10917974
Si     8.35762702     2.95077147    20.25690639     0.30695140     0.08532155     0.90968668
Si     8.63351978     2.93234891    14.59420123    -0.30029505     0.34170216     0.00559287
Si     2.54390020     8.69725786    20.41458240     0.59821939    -0.23112927     0.11109351
Si     2.92826407     8.72142045    14.47274043    -0.03752170    -0.06805818     0.34922153
Si     2.73926079     2.91558262    20.32842257    -0.42929697     0.03721941     0.01006605
Si     2.87992990     2.85161388    14.56931278    -0.08649144     0.80074286    -0.16439146
Si     9.92544876     7.31715931    18.94889193     0.09518643    -0.02710910    -0.04477044
Si    10.13429901     7.37414906    13.04171297     0.09979668    -0.45454299     0.25438982
Si     9.83017739     1.54700209    18.94938191     0.32001922     0.15417971    -0.09755640
Si    10.10478502     1.58654985    13.05227589    -0.15578759    -0.29393131     0.13725987
Si     4.11534001     7.36723077    18.98287374     0.08673649    -0.43739760    -0.10031866
Si     4.34651758     7.30789004    12.94997089     0.29118550    -0.43779129     0.80508840
Si     4.13348517     1.47584848    18.89635124     0.25348046     0.34526837     0.08157691
Si     4.02953852     4.29928180    21.79999348     0.64945555     0.27358538     0.08009438
Si     4.18675674     4.47785278    16.01038048     0.27689710    -0.25616363     0.07129276
Si     8.69408503     5.81770187    11.79993588     0.05819117    -0.35002524    -0.38579205
Si     8.41988886    11.56923804    17.45559209     0.16912949    -0.10741685     0.14178106
Si     8.65593984    11.46539281    11.67210960     0.33964196    -0.03106899    -0.18739648
Si     2.77856057     5.88032346    17.47233207     0.12949280     0.16774181    -0.01840388
Si     3.00064788     5.72152373    11.67589115    -0.02605139     0.29929000    -0.49284732
Si     2.67071951    11.58276077    17.42264564    -0.22555864     0.24370430     0.25768077
Si     3.02950701    11.36689261    11.54529242     0.13748555     0.26050416     0.02177551
Si     9.82742043    10.09042430    21.91553403     0.10495892    -0.11917206    -0.02414908
Si     9.93263761    10.14869470    15.98392170     0.11752576     0.12640259     0.07707106
Si     9.84743752     4.37088486    21.84480373    -0.14776930    -0.05403025    -0.31534368