64
Lattice="11.25964 0.00000 0.00000 0.02502 11.17006 0.00000 0.14248 0.27031 11.16108" Properties=species:S:1:pos:R:3:force:R:3 pbc="T T T" energy=-338.89767138 virial="-46.4847 -1.3952 -9.0217 -1.3952 -40.4706 -17.4406 -9.0217 -17.4406 -39.2590"
Si     1.42796000     4.22249000     1.40072000    -0.06027200    -0.00679000    -0.00092200
Si     4.29721000     9.87930000     4.18369000    -0.18602700    -0.17848600     0.06594000
Si     4.37020000    10.00837000     9.76331000    -0.19056000    -0.11082600     0.02665900
Si     9.91213000     4.28536000     4.18768000    -0.13522500    -0.02771400    -0.00006600
Si     9.97742000     4.42523000     9.76351000    -0.12949500    -0.18259500     0.07867700
Si     9.92651000     9.87773000     4.18168000    -0.18790600    -0.04721000     0.05064400
Si    10.00610000    10.01035000     9.77458000    -0.19045100    -0.07741700    -0.10639200
Si     2.97945000    11.43121000    11.15969000     0.17097200     0.17204800     0.00339400
Si     2.92243000    11.29861000     5.59002000     0.05301700     0.11992200    -0.06481700
Si     2.97125000     5.85702000    11.15881000     0.12517400     0.10167100     0.11343900
Si     2.89756000     5.71923000     5.57024000     0.17664000     0.07257500     0.13572100
Si     8.48447000    11.16824000     0.00304000     0.07698100     0.06422000    -0.00267700
Si     8.51547000     0.14090000     5.58962000     0.17580300     0.02811800    -0.11633800
Si     8.60218000     5.84225000    11.15876000     0.07804700     0.18895200     0.05444600
Si     4.36398000     4.43240000     9.77906000    -0.22851300    -0.16068100    -0.15481800
Si     8.53127000     5.72401000     5.58369000     0.18524000    -0.02778500     0.01883600
Si     4.32008000     1.56159000     6.97832000    -0.21052500    -0.00791900    -0.03608400
Si     4.25783000     7.01880000     1.40768000    -0.21598500    -0.12792000    -0.06255500
Si     4.32844000     7.14625000     6.97573000    -0.19436200    -0.06475900    -0.02915100
Si     9.87124000     1.42909000     1.39281000    -0.08862200     0.02099500    -0.03682300
Si     9.94707000     1.56555000     6.97023000    -0.19658700    -0.08066600     0.12215500
Si     9.87174000     7.01041000     1.40065000    -0.03662600    -0.05393200    -0.08395200
Si     9.95467000     7.14274000     6.98164000    -0.15889300    -0.00184700     0.01064400
Si     2.84905000     2.85694000     2.79785000     0.21629900     0.10772200    -0.06339300
Si     2.92589000     2.98507000     8.37335000     0.21797500     0.19990000     0.03668700
Si     2.86328000     8.44403000     2.79468000     0.21245500     0.10521700     0.02596700
Si     2.94413000     8.57417000     8.37286000     0.11234900     0.10399900    -0.04701300
Si     8.49337000     2.86014000     2.78656000     0.12301400     0.06887000     0.03346900
Si     8.55692000     2.99811000     8.36904000     0.19520900     0.05343300    -0.05147900
Si     4.23671000     1.42866000     1.39555000    -0.12604400    -0.07500200     0.00832400
Si     4.28636000     4.29681000     4.18412000    -0.22333600    -0.18563800     0.00239100
Si     5.71814000     8.51285000     5.57967000     0.20764600    -0.01496700    -0.07763700
Si     5.64480000     8.37224000     0.00418000     0.21852400     0.14024600    -0.01911700
Si     1.50385000     4.35587000     6.97524000    -0.17236100    -0.07471500     0.04168300
Si     1.44925000     9.80974000     1.40222000    -0.24358200    -0.13090900    -0.07868700
Si     1.51523000     9.94015000     6.97762000    -0.10451700    -0.07160600     0.05599900
Si     7.06610000     4.22001000     1.40103000    -0.17997500    -0.08305100    -0.03833500
Si     7.13347000     4.36906000     6.98172000    -0.15461100    -0.16246100    -0.05525200
Si     7.07849000     9.80901000     1.39278000    -0.20834700    -0.07483900     0.07143700
Si     7.14501000     9.93755000     6.96773000    -0.15302800    -0.04226500     0.08349000
Si    11.29131000     0.07628000     2.78256000     0.21042400    -0.00792400     0.08172100
Si     0.10796000     0.20315000     8.37445000     0.15994400     0.12540000     0.00365300
Si    11.30533000     5.65344000     2.79340000     0.13106300     0.07614200     0.00706800
Si    11.36384000     5.77883000     8.38414000     0.32735400     0.14558800    -0.14887800
Si     5.66043000     0.06888000     2.80235000     0.26074000     0.13646900    -0.14458300
Si     5.75552000    11.37004000     8.36351000     0.32879500     0.07116900     0.08615200
Si     5.67951000     5.64820000     2.79567000     0.20145400     0.10459100    -0.05288100
Si     5.75173000     5.78976000     8.37106000     0.14521300     0.11302900     0.06567700
Si     1.46338000     1.49083000     4.18771000    -0.16962000    -0.06696400     0.08201600
Si     1.52552000     1.64242000     9.77695000    -0.08643900    -0.18708600    -0.04837400
Si     1.47680000     7.07867000     4.18953000    -0.26593700     0.01146300     0.01582700
Si     1.54248000     7.21799000     9.76280000    -0.14517600    -0.12724700     0.03011500
Si     7.10185000     1.50470000     4.18644000    -0.22934000    -0.10644800     0.02555000
Si     7.18344000     1.62963000     9.76675000    -0.33959300    -0.08084100     0.00030400
Si     7.11525000     7.06354000     4.18568000    -0.27955400     0.11571700     0.03506900
Si     7.17985000     7.21791000     9.77005000    -0.15107000    -0.07574600    -0.02672800
Si     0.01251000     2.80773000     0.00483000     0.01608900    -0.00601700    -0.00710600
Si    11.33195000     2.92755000     5.58287000     0.25180100     0.05452100    -0.05460500
Si    11.41896000     8.64547000    11.15650000     0.18126700     0.03979200     0.15879400
Si    11.33993000     8.51835000     5.59123000     0.23946400    -0.00489200    -0.09540300
Si     5.64034000     2.79745000     0.00246000     0.19684300    -0.03617600     0.02985800
Si     5.70675000     2.93407000     5.57775000     0.20168000     0.07709500     0.04928700
Si     8.49688000     8.44213000     2.79423000     0.13311300     0.09048800    -0.02520700
Si     8.57582000     8.58497000     8.37076000     0.10649100     0.04979200     0.03877500
64
Lattice="11.25964 0.00000 0.00000 0.02502 11.17006 0.00000 0.14248 0.27031 11.16108" Properties=species:S:1:pos:R:3:force:R:3 pbc="T T T" energy=-338.87740405 virial="-46.5515 -1.6279 -8.7278 -1.6279 -40.4171 -16.8660 -8.7278 -16.8660 -39.2400"
Si     1.43701000     4.21344000     1.39862000    -0.18563000     0.03536600     0.04284500
Si     4.30246000     9.86900000     4.18559000    -0.19284200     0.02116200     0.04373600
Si     4.36272000     9.99393000     9.76525000    -0.09813700     0.06167400    -0.00229000
Si     9.90496000     4.28332000     4.18775000    -0.02096100     0.03043800     0.01602500
Si     9.96209000     4.42365000     9.76704000     0.15291800    -0.18512100     0.00983900
Si     9.91902000     9.88012000     4.18123000    -0.09116300    -0.01706900    -0.02046300
Si    10.00099000    10.01879000     9.77126000    -0.09849000    -0.14766600    -0.06678400
Si     2.97465000    11.43098000    11.15695000     0.23777200     0.14925900     0.06768800
Si     2.92008000    11.30383000     5.58867000     0.14329400    -0.00800400    -0.05215200
Si     2.81344000     5.58437000     0.00119000     0.29287600     0.11753300    -0.01278800
Si     2.90083000     5.72057000     5.56071000     0.14982700     0.02544000     0.21265100
Si     8.46622000     0.00127000     0.00364000    -0.03959800     0.06183200    -0.00968200
Si     8.50470000     0.14344000     5.58085000     0.20526600    -0.03649200    -0.02285800
Si     8.60782000     5.84221000    11.14975000    -0.07909500     0.21654500     0.14455600
Si     4.36768000     4.42769000     9.77219000    -0.30064000    -0.06957100    -0.09333200
Si     8.53675000     5.72740000     5.59033000     0.12199400    -0.07884300     0.02270600
Si     4.31838000     1.55931000     6.98105000    -0.17732100    -0.04109400    -0.06132000
Si     4.25004000     7.02043000     1.40573000    -0.14064800    -0.20937200    -0.00391400
Si     4.33037000     7.15003000     6.96881000    -0.20376500    -0.07365800     0.00119200
Si     9.87304000     1.43389000     1.39302000    -0.03618900    -0.02078800    -0.00800500
Si     9.93805000     1.57538000     6.95439000    -0.13856100    -0.19869900     0.26976700
Si     9.86454000     7.00022000     1.40260000     0.08330900    -0.03459600    -0.16831400
Si     9.95031000     7.14495000     6.99114000    -0.02076000     0.00267300    -0.08154600
Si     2.84132000     2.85494000     2.79859000     0.37332500     0.15351000    -0.01728900
Si     2.92942000     2.97583000     8.36996000     0.18407900     0.22209900     0.10180500
Si     2.86886000     8.44966000     2.79761000     0.19533800     0.04730200     0.00071000
Si     2.94303000     8.57718000     8.36833000     0.11845900     0.03831900    -0.07098500
Si     8.49990000     2.85981000     2.78995000     0.03584200     0.03207900     0.04193100
Si     8.55447000     2.99382000     8.37054000     0.15062500     0.09476500    -0.11572500
Si     4.23700000     1.43494000     1.40302000    -0.16521000    -0.11419900    -0.10162700
Si     4.29193000     4.29675000     4.18724000    -0.31725700    -0.24713500    -0.03144000
Si     5.72536000     8.52034000     5.57977000     0.18651600    -0.10026600    -0.05957300
Si     5.64857000     8.36905000     0.00557000     0.12222700     0.16838100     0.01005600
Si     1.51039000     4.33951000     6.96952000    -0.20963000     0.13663900     0.10718100
Si     1.45394000     9.81211000     1.41002000    -0.28491600    -0.14895800    -0.14217300
Si     1.51566000     9.93476000     6.97050000    -0.15516400     0.06168900     0.12548700
Si     7.07545000     4.21772000     1.40251000    -0.23739200    -0.04956300    -0.06185800
Si     7.12975000     4.36530000     6.98181000    -0.12138100    -0.12430700    -0.04835100
Si     7.07571000     9.80854000     1.39160000    -0.10836200    -0.06157100     0.10949600
Si     7.14445000     9.93144000     6.97023000    -0.13484900     0.08970200     0.09819600
Si     0.03814000     0.08111000     2.77924000     0.14458400    -0.04258800     0.16467900
Si     0.10891000     0.21531000     8.37957000     0.09790800     0.04786700    -0.15454400
Si    11.30465000     5.64464000     2.78394000     0.13635500     0.06388000     0.06301500
Si    11.37149000     5.79115000     8.39181000     0.24140800    -0.05846300    -0.19778300
Si     5.66235000     0.07887000     2.80139000     0.22503900     0.00641500    -0.09770300
Si     5.73432000     0.20824000     8.37076000     0.24298200    -0.10652200     0.05496800
Si     5.67837000     5.64051000     2.80489000     0.26357700     0.21650200    -0.17088900
Si     5.75462000     5.79715000     8.37057000     0.10247800     0.07042800     0.03964500
Si     1.47173000     1.49214000     4.19134000    -0.30412200    -0.06501000     0.06512200
Si     1.51909000     1.64265000     9.78458000     0.00593700    -0.17482800    -0.13168000
Si     1.47932000     7.07543000     4.17927000    -0.32289700     0.03546300     0.03777000
Si     1.53828000     7.22908000     9.76355000    -0.10632300    -0.17147300     0.06299900
Si     7.09611000     1.50572000     4.19342000    -0.18647000    -0.07091800    -0.10270300
Si     7.17916000     1.62911000     9.76366000    -0.26624200    -0.08841200     0.08767100
Si     7.12053000     7.06564000     4.19375000    -0.29412800     0.08665400    -0.01507900
Si     7.17393000     7.22774000     9.77241000    -0.05551000    -0.16760600    -0.05502600
Si     0.02286000     2.80367000     0.01131000    -0.14372700     0.08575100    -0.07579100
Si    11.33126000     2.92884000     5.58264000     0.26057100     0.05752000    -0.13301300
Si    11.27341000     8.37201000     0.00066000     0.13418300     0.13491800     0.15513500
Si    11.33904000     8.52225000     5.58428000     0.19248600    -0.09053000    -0.05130000
Si     5.78395000     3.06615000    11.16013000     0.20746600    -0.00400600     0.08257500
Si     5.70347000     2.92789000     5.57509000     0.19108200     0.13094000     0.13075400
Si     8.50821000     8.43153000     2.79256000    -0.02502600     0.18227600    -0.00830800
Si     8.57732000     8.58235000     8.36862000     0.06237600     0.11765300     0.09532400
64
Lattice="11.25964 0.00000 0.00000 0.02502 11.17006 0.00000 0.14248 0.27031 11.16108" Properties=species:S:1:pos:R:3:force:R:3 pbc="T T T" energy=-338.78818652 virial="-46.6033 -1.8739 -8.4213 -1.8739 -40.2524 -16.3007 -8.4213 -16.3007 -39.0349"
Si     1.44581000     4.20444000     1.39658000    -0.29654600     0.08139200     0.07866100
Si     4.30744000     9.85874000     4.18754000    -0.17995100     0.22286300     0.01696300
Si     4.35511000     9.97958000     9.76718000     0.00964500     0.23618900    -0.02624200
Si     9.89775000     4.28131000     4.18785000     0.10736100     0.08962400     0.02965900
Si     9.94697000     4.42182000     9.77058000     0.44606000    -0.18376100    -0.06263500
Si     9.91141000     9.88250000     4.18075000     0.02304900     0.01168200    -0.08805300
Si     9.99574000    10.02703000     9.76784000     0.00620700    -0.21511400    -0.03306800
Si     2.97018000    11.43097000    11.15429000     0.28352900     0.11851300     0.13339800
Si     2.89291000     0.13899000     5.58725000     0.21505600    -0.13621900    -0.03074600
Si     2.79851000     5.58219000     0.00465000     0.44396100     0.14145000    -0.13553500
Si     2.90430000     5.72195000     5.55148000     0.11016200    -0.02314700     0.28643200
Si     8.47293000     0.00444000     0.00422000    -0.17117200     0.05569100    -0.01210800
Si     8.49421000     0.14592000     5.57205000     0.22527500    -0.10698700     0.07902200
Si     8.61334000     5.84246000    11.14094000    -0.25370500     0.24315200     0.24351900
Si     4.37096000     4.42288000     9.76519000    -0.34692400     0.02204000    -0.03687100
Si     8.54240000     5.73068000     5.59699000     0.03805400    -0.13424300     0.02850900
Si     4.31644000     1.55698000     6.98370000    -0.12307500    -0.07016900    -0.09153300
Si     4.24206000     7.02176000     1.40376000    -0.05147400    -0.28025400     0.04750200
Si     4.33202000     7.15370000     6.96190000    -0.19474400    -0.07924900     0.03201000
Si     9.87480000     1.43866000     1.39322000     0.02823800    -0.06135300     0.01880000
Si     9.92884000     1.58493000     6.93893000    -0.06304900    -0.30211900     0.40965000
Si     9.85746000     6.98998000     1.40433000     0.21601600    -0.01589800    -0.25078600
Si     9.94593000     7.14716000     7.00052000     0.13160800     0.00441100    -0.17319400
Si     2.83410000     2.85314000     2.79930000     0.51045600     0.18924700     0.03039700
Si     2.93321000     2.96690000     8.36670000     0.12942300     0.23813800     0.16832400
Si     2.87471000     8.45535000     2.80053000     0.15618900    -0.01818500    -0.02561800
Si     2.94209000     8.58024000     8.36370000     0.10705500    -0.03125600    -0.08998300
Si     8.50647000     2.85953000     2.79340000    -0.07087400    -0.00656300     0.05160500
Si     8.55223000     2.98966000     8.37187000     0.09051300     0.13311100    -0.17314000
Si     4.23706000     1.44107000     1.41035000    -0.18442200    -0.14857400    -0.21224300
Si     4.29707000     4.29635000     4.19032000    -0.39091100    -0.30174500    -0.06457300
Si     5.73283000     8.52770000     5.57978000     0.14348000    -0.19127200    -0.03703800
Si     5.65251000     8.36609000     0.00697000     0.00470400     0.19408000     0.04621100
Si     1.51664000     4.32335000     6.96396000    -0.22103800     0.34572000     0.16339100
Si     1.45823000     9.81428000     1.41763000    -0.30733300    -0.15797800    -0.20836600
Si     1.51587000     9.92945000     6.96355000    -0.18417600     0.19576800     0.18491600
Si     7.08447000     4.21537000     1.40391000    -0.27790400    -0.01456500    -0.09295300
Si     7.12587000     4.36138000     6.98183000    -0.06846500    -0.08045000    -0.04152600
Si     7.07278000     9.80799000     1.39058000     0.00498900    -0.04318100     0.13868400
Si     7.14370000     9.92545000     6.97286000    -0.09720200     0.22509100     0.10837200
Si     0.04482000     0.08588000     2.77614000     0.06311000    -0.07294800     0.24283700
Si     0.10999000     0.22755000     8.38448000     0.01746100    -0.03928300    -0.30241400
Si    11.30415000     5.63593000     2.77457000     0.12684100     0.05352100     0.12359600
Si     0.11983000     5.80339000     8.39921000     0.13373300    -0.25459300    -0.24468100
Si     5.66458000     0.08887000     2.80029000     0.17043900    -0.12489600    -0.04912900
Si     5.73849000     0.21635000     8.37810000     0.13587300    -0.28528700     0.01951800
Si     5.67759000     5.63312000     2.81387000     0.30626100     0.31795100    -0.27840900
Si     5.75764000     5.80463000     8.37013000     0.04266300     0.02112900     0.01598000
Si     1.47965000     1.49335000     4.19507000    -0.41916300    -0.05877700     0.03419100
Si     1.51268000     1.64264000     9.79203000     0.11841800    -0.16027300    -0.21577400
Si     1.48139000     7.07224000     4.16906000    -0.35370600     0.06096100     0.05977800
Si     1.53394000     7.23993000     9.76439000    -0.05049700    -0.21088500     0.09548900
Si     7.09012000     1.50663000     4.20026000    -0.13003100    -0.03337200    -0.23307300
Si     7.17453000     1.62847000     9.76069000    -0.17073000    -0.09098400     0.17022400
Si     7.12540000     7.06786000     4.20180000    -0.28293500     0.05963800    -0.07252800
Si     7.16794000     7.23734000     9.77470000     0.05486300    -0.25629600    -0.09107600
Si     0.03301000     2.79974000     0.01768000    -0.31195800     0.17179000    -0.13540600
Si    11.33093000     2.93021000     5.58224000     0.24879400     0.05737100    -0.20298100
Si    11.27053000     8.36903000     0.00612000     0.07563200     0.22333900     0.14950000
Si    11.33841000     8.52602000     5.57726000     0.13139800    -0.17164000    -0.00902300
Si     5.78536000     3.06453000    11.15682000     0.19612300     0.02510800     0.13657400
Si     5.70046000     2.92189000     5.57262000     0.16155100     0.17848300     0.21551000
Si     8.51951000     8.42117000     2.79088000    -0.19322500     0.27042300     0.01451600
Si     8.57890000     8.57989000     8.36661000     0.00181800     0.18296000     0.15551600
64
Lattice="11.25964 0.00000 0.00000 0.02502 11.17006 0.00000 0.14248 0.27031 11.16108" Properties=species:S:1:pos:R:3:force:R:3 pbc="T T T" energy=-338.63524348 virial="-46.5601 -2.1282 -8.0730 -2.1282 -40.0491 -15.6851 -8.0730 -15.6851 -38.7328"
Si     1.45420000     4.19555000     1.39465000    -0.39970600     0.13059000     0.11085700
Si     4.31217000     9.84878000     4.18952000    -0.16055900     0.41930100    -0.01568000
Si     4.34750000     9.96554000     9.76908000     0.11667500     0.40454100    -0.04727500
Si     9.89069000     4.27943000     4.18798000     0.23931600     0.14863700     0.04037600
Si     9.93247000     4.41973000     9.77403000     0.71998200    -0.18674600    -0.14081300
Si     9.90383000     9.88489000     4.18016000     0.13647500     0.03691700    -0.15512800
Si     9.99051000    10.03497000     9.76438000     0.11006000    -0.27567100    -0.00192700
Si     2.96610000    11.43111000    11.15181000     0.31766300     0.08477500     0.19834300
Si     2.89106000     0.14402000     5.58578000     0.27797600    -0.26022400     0.00016400
Si     2.78419000     5.58021000     0.00792000     0.58762200     0.16832100    -0.24789400
Si     2.90792000     5.72330000     5.54264000     0.06217500    -0.06870100     0.35824200
Si     8.47941000     0.00769000     0.00479000    -0.30001800     0.04897400    -0.00738300
Si     8.48403000     0.14826000     5.56336000     0.24740900    -0.17635000     0.18831600
Si     8.61852000     5.84304000    11.13247000    -0.42508900     0.26735200     0.34111000
Si     4.37377000     4.41811000     9.75814000    -0.38045100     0.10534800     0.01351000
Si     8.54811000     5.73377000     5.60370000    -0.04558300    -0.18227900     0.03470000
Si     4.31433000     1.55455000     6.98623000    -0.06121100    -0.09836100    -0.12271200
Si     4.23400000     7.02271000     1.40187000     0.03956000    -0.34224700     0.09155500
Si     4.33340000     7.15727000     6.95503000    -0.18003300    -0.08505000     0.05506700
Si     9.87659000     1.44334000     1.39345000     0.09109200    -0.10378900     0.04174500
Si     9.91953000     1.59407000     6.92403000     0.00780900    -0.39875900     0.53008100
Si     9.85067000     6.97972000     1.40571000     0.34749500     0.00517400    -0.33289300
Si     9.94172000     7.14937000     7.00967000     0.28436700    -0.00233000    -0.26725500
Si     2.82758000     2.85160000     2.80006000     0.63454700     0.21920600     0.07978900
Si     2.93717000     2.95829000     8.36367000     0.06622500     0.26186000     0.23648900
Si     2.88077000     8.46102000     2.80342000     0.10590400    -0.08799400    -0.04772600
Si     2.94130000     8.58326000     8.35895000     0.08576800    -0.09975200    -0.10231700
Si     8.51294000     2.85923000     2.79691000    -0.17696900    -0.04396800     0.05899400
Si     8.55012000     2.98568000     8.37297000     0.02978600     0.16892400    -0.22218900
Si     4.23687000     1.44699000     1.41739000    -0.19345300    -0.18147300    -0.32244800
Si     4.30166000     4.29554000     4.19331000    -0.44959500    -0.34885600    -0.09637900
Si     5.74051000     8.53480000     5.57974000     0.08922500    -0.27892600    -0.01272200
Si     5.65646000     8.36340000     0.00844000    -0.11899900     0.21892700     0.08661900
Si     1.52258000     4.30765000     6.95862000    -0.22261500     0.53929700     0.20802500
Si     1.46210000     9.81622000     1.42495000    -0.31882000    -0.16541800    -0.27507800
Si     1.51583000     9.92441000     6.95684000    -0.20442200     0.32107400     0.23305600
Si     7.09310000     4.21299000     1.40517000    -0.31354500     0.02063200    -0.12184300
Si     7.12189000     4.35734000     6.98180000    -0.01530000    -0.03597700    -0.03958200
Si     7.06986000     9.80738000     1.38974000     0.11740200    -0.02287200     0.16095200
Si     7.14282000     9.91977000     6.97564000    -0.05283200     0.35333600     0.11110800
Si     0.05158000     0.09056000     2.77338000    -0.02208700    -0.09951800     0.31744100
Si     0.11109000     0.23973000     8.38897000    -0.06169900    -0.12700800    -0.43365400
Si    11.30383000     5.62729000     2.76536000     0.11244000     0.04318000     0.18539600
Si     0.12800000     5.81528000     8.40627000     0.01489000    -0.43727700    -0.28833600
Si     5.66704000     0.09871000     2.79912000     0.10949900    -0.25601900    -0.00176600
Si     5.74284000     0.22407000     8.38546000     0.01793400    -0.45764800    -0.02125000
Si     5.67724000     5.62617000     2.82247000     0.34324600     0.41226500    -0.37880200
Si     5.76073000     5.81215000     8.36971000    -0.01798600    -0.02742500    -0.00627600
Si     1.48700000     1.49449000     4.19884000    -0.52525500    -0.05216900    -0.00063000
Si     1.50642000     1.64241000     9.79918000     0.23089300    -0.14502000    -0.29904600
Si     1.48298000     7.06913000     4.15894000    -0.37496700     0.08414500     0.07885900
Si     1.52953000     7.25049000     9.76536000     0.01213000    -0.25117200     0.12027400
Si     7.08394000     1.50751000     4.20678000    -0.07062000     0.00498800    -0.36436600
Si     7.16965000     1.62771000     9.75795000    -0.06476300    -0.08490300     0.24828400
Si     7.12988000     7.07016000     4.20975000    -0.26531400     0.02870100    -0.13184200
Si     7.16203000     7.24659000     9.77686000     0.16930500    -0.34318000    -0.13115800
Si     0.04273000     2.79603000     0.02386000    -0.47721300     0.24989900    -0.18764500
Si    11.33094000     2.93166000     5.58155000     0.22969100     0.05616300    -0.26325300
Si    11.26775000     8.36637000     0.01178000     0.01302600     0.30501000     0.14668200
Si    11.33795000     8.52956000     5.57022000     0.06503600    -0.24658300     0.04159300
Si     5.78704000     3.06295000    11.15371000     0.17679200     0.05438900     0.18905700
Si     5.69767000     2.91613000     5.57044000     0.12651500     0.22837000     0.29968600
Si     8.53054000     8.41119000     2.78922000    -0.36435400     0.35616500     0.04826400
Si     8.58049000     8.57768000     8.36481000    -0.06193800     0.24546400     0.21846300
64
Lattice="11.25964 0.00000 0.00000 0.02502 11.17006 0.00000 0.14248 0.27031 11.16108" Properties=species:S:1:pos:R:3:force:R:3 pbc="T T T" energy=-338.43098589 virial="-46.3951 -2.3821 -7.7171 -2.3821 -39.8037 -14.9895 -7.7171 -14.9895 -38.4043"
Si     1.46205000     4.18683000     1.39286000    -0.50013200     0.17917100     0.14079600
Si     4.31668000     9.83938000     4.19147000    -0.14680000     0.60639500    -0.04458000
Si     4.34005000     9.95205000     9.77092000     0.21615700     0.56006300    -0.05816500
Si     9.88396000     4.27775000     4.18817000     0.35968200     0.20650200     0.05155900
Si     9.91893000     4.41739000     9.77730000     0.96407200    -0.18469200    -0.21273700
Si     9.89643000     9.88733000     4.17935000     0.23958200     0.05400600    -0.21507800
Si     9.98542000    10.04254000     9.76091000     0.20557900    -0.33039300     0.02564300
Si     2.96245000    11.43137000    11.14961000     0.34980100     0.04928100     0.25751400
Si     2.88958000     0.14869000     5.58432000     0.33762700    -0.38031600     0.03097600
Si     2.77066000     5.57846000     0.01085000     0.71767500     0.19457200    -0.35134000
Si     2.91164000     5.72455000     5.53428000     0.01644100    -0.10829400     0.42492600
Si     8.48549000     0.01102000     0.00534000    -0.41428300     0.04255500    -0.00218700
Si     8.47418000     0.15035000     5.55492000     0.27135900    -0.24036000     0.28923400
Si     8.62312000     5.84400000    11.12445000    -0.58146600     0.28871600     0.43126400
Si     4.37605000     4.41347000     9.75110000    -0.40797100     0.18279800     0.06370900
Si     8.55375000     5.73662000     5.61046000    -0.12452200    -0.22788200     0.03415400
Si     4.31213000     1.55198000     6.98859000     0.00011000    -0.12837500    -0.14998200
Si     4.22599000     7.02319000     1.40010000     0.12756200    -0.39259700     0.12947700
Si     4.33454000     7.16073000     6.94822000    -0.16504000    -0.08946700     0.07894100
Si     9.87851000     1.44789000     1.39373000     0.14344600    -0.14607600     0.06523300
Si     9.91023000     1.60268000     6.90984000     0.07057200    -0.48327300     0.63661200
Si     9.84436000     6.96945000     1.40663000     0.46168800     0.02698700    -0.40236700
Si     9.93790000     7.15159000     7.01846000     0.42466700    -0.01192700    -0.35778600
Si     2.82193000     2.85036000     2.80093000     0.74928400     0.24185000     0.12702600
Si     2.94123000     2.95003000     8.36096000     0.00591800     0.28236700     0.30003700
Si     2.88698000     8.46657000     2.80624000     0.05977000    -0.15482900    -0.06928300
Si     2.94062000     8.58614000     8.35405000     0.06671500    -0.16516900    -0.11175600
Si     8.51918000     2.85888000     2.80051000    -0.27549100    -0.07922300     0.05882100
Si     8.54804000     2.98193000     8.37376000    -0.02604300     0.19796300    -0.26456900
Si     4.23641000     1.45267000     1.42399000    -0.19968100    -0.21028600    -0.42370000
Si     4.30565000     4.29424000     4.19617000    -0.50367900    -0.38655600    -0.12784400
Si     5.74831000     8.54152000     5.57969000     0.03801800    -0.35922800     0.01410400
Si     5.66024000     8.36100000     0.01002000    -0.23604800     0.24002400     0.12538000
Si     1.52823000     4.29268000     6.95356000    -0.21939200     0.71796300     0.24715500
Si     1.46554000     9.81795000     1.43190000    -0.32769600    -0.16790400    -0.33241600
Si     1.51551000     9.91980000     6.95046000    -0.22327300     0.43657800     0.27404600
Si     7.10132000     4.21064000     1.40627000    -0.35324100     0.05454000    -0.14676300
Si     7.11788000     4.35325000     6.98171000     0.03364000     0.01137700    -0.03527900
Si     7.06709000     9.80673000     1.38912000     0.21688800    -0.00035200     0.18020800
Si     7.14186000     9.91456000     6.97857000    -0.01259600     0.47197800     0.11736900
Si     0.05832000     0.09510000     2.77105000    -0.10035800    -0.12342700     0.38534700
Si     0.11211000     0.25175000     8.39288000    -0.13822000    -0.21604500    -0.55392800
Si    11.30366000     5.61870000     2.75640000     0.10008800     0.04130800     0.24436200
Si     0.13620000     5.82659000     8.41295000    -0.09801700    -0.60884500    -0.33186300
Si     5.66966000     0.10820000     2.79795000     0.05922600    -0.37886500     0.04213500
Si     5.74722000     0.23117000     8.39280000    -0.09412800    -0.61774100    -0.06974600
Si     5.67735000     5.61978000     2.83057000     0.37767100     0.49698100    -0.46889500
Si     5.76380000     5.81963000     8.36928000    -0.07672600    -0.08126300    -0.02875800
Si     1.49364000     1.49555000     4.20261000    -0.62605000    -0.04299400    -0.03670100
Si     1.50048000     1.64198000     9.80593000     0.33489700    -0.12823900    -0.37589100
Si     1.48405000     7.06614000     4.14891000    -0.39205000     0.10627400     0.09901600
Si     1.52514000     7.26072000     9.76649000     0.07283100    -0.28439400     0.14457400
Si     7.07766000     1.50839000     4.21280000    -0.01463300     0.03891500    -0.48765200