128
Lattice="8.986 -0.106 0.439 0.000 10.222 -0.538 0.000 0.000 17.542" Properties=species:S:1:pos:R:3:forces:R:3 energy=-617.04046631 virial="237.61041937 -2.39994520 -2.18239092 -2.39994520 225.84883529 -7.17646373 -2.18239092 -7.17646373 234.93253877"
Si     0.75358012     4.52410268     0.71743564    -0.05368889     0.00216497     0.00202457
Si     4.18983672     8.23605416    16.55979927    -0.00035820    -0.03136713    -0.03093693
Si     4.04529117     3.02544737    13.12129825    -0.01570974    -0.01960566    -0.00142794
Si     5.05083150     2.56473507     8.36896158    -0.04228579     0.01001043    -0.02083734
Si     7.14491912     8.48562633    14.05744636     0.00775700    -0.03186293    -0.01966163
Si    -0.21497137     7.44953555    17.10837506    -0.00945557    -0.02391316    -0.05242206
Si    -0.77541755     2.55886690    11.92636788    -0.02083578    -0.00227677    -0.01120993
Si     0.81407904     1.90503290     7.37795146     0.02723310    -0.02685204     0.04672340
Si     5.61070605     6.11236231    16.76934496    -0.00232349    -0.00017279    -0.00861076
Si     7.30780645     6.79615990    11.95623028     0.01888450     0.03179355    -0.07621416
Si     6.04679034     0.44175379    16.49722752     0.00561100     0.00297410     0.01860950
Si     5.46380611     1.54323259    11.53296165    -0.03993492     0.02024906     0.00701823
Si     1.53039500     6.77936027    15.54247548     0.02725740     0.05920463     0.01456060
Si     0.35218022     6.30753244    13.04597979     0.06113752     0.01904859     0.03072073
Si     0.43271100     2.60805462    14.23976253    -0.00738352     0.01888172     0.04349519
Si     2.00213550     1.34711772    15.65273667    -0.03668844     0.02446877     0.00762663
Si     3.83114315     6.05310278    15.09300411    -0.02614692     0.04170690     0.00316385
Si     4.91927873     5.84022240    10.34278183    -0.04422102     0.05902267     0.03990635
Si     3.74145391    10.69553309    16.97854651    -0.01656175     0.02003204     0.00418054
Si     4.51515971    -0.83601276    10.68343588    -0.00852394    -0.01201022     0.00317410
Si     0.63049912     4.56988560    15.72731080    -0.06067131     0.02539740     0.00769361
Si    -0.17033923     4.82187197    11.24401255    -0.02420319    -0.02898637    -0.05431774
Si     8.69267677    10.16201217    16.29756746    -0.01388470     0.02128408    -0.00577947
Si     8.97553883    10.44731232     8.90570020    -0.03523758    -0.00397503    -0.01940284
Si     2.72814263     9.48588689    14.04286663     0.03176390     0.01787674     0.03481352
Si     6.55031018     7.77717212     9.90011531     0.02965502    -0.01172313     0.05190494
Si     5.47290293     4.19048676    15.12781873    -0.01792827    -0.00369028     0.04865655
Si     4.43130402     3.46344149    10.49122760     0.02341048    -0.03156108     0.00067480
Si     0.96487735    10.57892089    12.86784179    -0.05109683     0.03391603     0.02232545
Si     1.34999392     0.30764613    10.88098885     0.03245271    -0.01637545     0.02958651
Si     0.04532965     8.21153070     9.50392599    -0.01202913    -0.00241467    -0.01891108
Si     4.87427216     7.71088417    11.90205782    -0.00459131    -0.03815923    -0.01634756
Si     5.98352332     6.19917976    13.81149887    -0.02526343     0.01142629     0.01805246
Si     6.24732699     2.26755533    13.75053738     0.00007778     0.01176472     0.02362819
Si     6.28721399     4.29257563    12.06388688    -0.02696675    -0.00556665     0.05001175
Si     0.45978461     8.54295391    14.33903801     0.01509656    -0.03729098    -0.01406450
Si     1.59145349     6.69246990    10.85830406     0.01503752     0.04239655    -0.01088142
Si     3.10351382     3.53047367    15.29363892     0.03903800     0.00828336     0.00460346
Si     1.74339557     2.37830940    12.17108051    -0.00131085     0.02351709    -0.00645821
Si     7.83914224     6.42911435    15.40093412     0.02165291     0.00862108    -0.01543549
Si     7.17212247     5.18949911     9.87219870     0.08021244    -0.02049225    -0.00783647
Si     7.72145613     0.67350235    14.74470752     0.03299779    -0.00155966    -0.03138544
Si     6.99515131     2.75670472    10.07800859     0.00550363    -0.01248535     0.06061512
Si     2.65424708     7.17775136    13.26806730    -0.04921215    -0.00641464    -0.02920447
Si     3.04970212     5.88733760     8.94681389     0.03840800     0.02419149    -0.02086771
Si     4.37900626     1.05909723    14.86397029     0.00657646    -0.01173111    -0.02586230
Si     2.62162477     2.79374890    17.59278897    -0.03460838    -0.04985188     0.01225513
Si     4.01492231     5.35035660    12.55152211     0.01749343     0.03543940    -0.02579791
Si     5.63825703     5.12817636     8.00403496     0.01811344    -0.02138120    -0.01273221
Si     5.74206990    -0.30689668    13.16483912     0.02696922    -0.03367382    -0.02265304
Si     6.70334664    10.21189117     9.60731064     0.06338268    -0.02126382     0.00345989
Si     1.84564856     4.51737537    13.52776305    -0.00323299     0.00968451    -0.04033835
Si     2.28815807     4.39679610    11.03286775     0.00101083    -0.00380423     0.00377471
Si     3.46448427    10.91932667    12.06012099     0.02363489     0.04241072     0.00957263
Si     2.31446041    -0.02907502     8.13868050    -0.01895273     0.00367099    -0.02361382
Si     6.76650482     8.38301995    16.52246228     0.02346623    -0.01808550    -0.01652957
Si     7.92687258    10.31194563    11.63771655    -0.00687412    -0.02753501    -0.01010736
Si     7.30510991     2.85368783    16.16683808     0.04888227    -0.01733589    -0.06483796
Si     7.79405719     4.30304477    14.12746982     0.02174539    -0.01683367     0.01864453
Si     1.90088954     9.29723987    16.31731711    -0.01162587     0.00474642     0.02895860
Si     2.58885924     8.78835747    11.49426830     0.00222185    -0.09262217    -0.01337576
Si     3.34453065     1.29308179     9.98401338     0.03357745     0.01975442    -0.00392143
Si     0.48721377     2.65376408     9.85906460    -0.01079432    -0.02611177     0.00165735
Si     6.85744910     8.70838881     7.62317243     0.02905831     0.06224105     0.00000483
Si     5.59043724     8.16573302     4.40561767     0.00430974    -0.01878657    -0.00097035
Si     8.30660462     8.89678383     4.96117519     0.02238504    -0.00737587    -0.00072256
Si     0.65368385     5.42461858     8.98733833    -0.05727255    -0.06943957    -0.01777743
Si     1.23124741     3.81301306     3.01260291    -0.00843543    -0.02137857    -0.02710102
Si     0.25351956     2.35578966    -0.50562352     0.00557269    -0.00525337    -0.03813513
Si     6.14860024     6.83923663     6.35165968    -0.02977888    -0.06405786     0.01282198
Si     5.38661240     5.94461874     3.16064158    -0.02383685     0.03156259    -0.00430558
Si     7.20743028     1.29422241     8.12068053     0.00620213    -0.02749962     0.03277828
Si     6.84080082     1.32852586     3.61973001     0.01765943     0.01004116     0.01851124
Si     1.29568019     4.68602308     6.30476988    -0.01397987     0.00900165     0.03799121
Si     0.86031944     5.87967357     4.19077645    -0.08000865    -0.03167406    -0.01627248
Si     1.44934710     0.15963759     5.75037766     0.01023623    -0.04103363    -0.04351231
Si     0.21871692     0.65009896     3.49086120    -0.02526123     0.02699314     0.03328223
Si     5.22033355     1.69171609     5.37628352    -0.01010093    -0.00221244     0.01472961
Si     3.56977093     4.60804316     6.95451209    -0.01059412     0.01079396    -0.01665854
Si     4.82068999    10.32593802     7.81026596    -0.01169519    -0.01523800    -0.00189863
Si     3.08120898    -0.80480534     2.01986032     0.02618775    -0.00157447     0.00784231
Si    -0.95080872     5.39701628     5.71768526     0.03871087    -0.03696948    -0.03930811
Si     0.29452169     6.68914786     1.90464565     0.00626293     0.02368656    -0.00805020
Si     9.22606485     8.74112157     7.23883150     0.01103173    -0.02458013    -0.04499912
Si     8.60003555    12.62812479     1.73214569    -0.01236348     0.01236053     0.02524138
Si     3.73863194     7.46062824     6.08525839     0.05066321    -0.01186190     0.05512965
Si     5.54621546     9.20396251     0.91862601     0.01186497     0.05128827    -0.03918880
Si     5.46110631     4.77343340     5.32788615     0.00863947    -0.00816655     0.04880886
Si     4.61276501     4.60511159     0.96702788    -0.03290034     0.03141448     0.00378213
Si     1.64477394     7.97302863     4.95376625     0.01674869     0.02687052    -0.01577598
Si     0.14768482     9.53688651     0.66473927    -0.05059599     0.03602981     0.00153369
Si     1.17832149     2.65499557     5.07002060     0.00830242     0.05646889    -0.07267912
Si     2.60179451     5.70814553     2.17217778     0.02005229    -0.01317612    -0.02067387
Si     4.68316239     7.67380393     8.29176616     0.01486037     0.00751328     0.03326945
Si     4.92893296     2.61014280    16.84633015    -0.02121198     0.04854523    -0.00507870
Si     3.48287023     7.83395040     3.33347764     0.00911895     0.00358386    -0.00831674
Si     6.59937451     3.23143658     6.69423702     0.00416237    -0.02757675    -0.05384643
Si     7.89676818     3.56435790     4.47078744     0.01092916     0.00393892     0.00918233
Si     5.63852371     3.47031020     3.27870536    -0.02538037    -0.02293475     0.02159536
Si     1.59834483     6.90813670     7.18514881     0.00320571    -0.01419384    -0.00259645
Si     2.14317273     7.45781484     0.36432797    -0.01651816    -0.04436279    -0.00030692
Si     3.24603619     2.05477915     6.83017667    -0.00195878     0.03159394    -0.01259319
Si     2.64224531     1.04339275     3.74063666    -0.00687949     0.01099500     0.01160360
Si     7.55984601     6.72076957     4.20898565     0.06330868    -0.03539213    -0.00818517
Si     6.89200699     7.07451757     1.44831202    -0.01345436     0.01237603     0.01632382
Si     8.04916414     1.43663031     5.82619088     0.01873891    -0.01302333     0.00025411
Si     6.59043796     3.12634766     0.97140003    -0.05454328     0.03768757     0.02320790
Si     3.24119597     5.62509131     4.55971965     0.01822175     0.02336885    -0.00166267
Si     4.45387422     7.07081153     1.20149051    -0.02597836    -0.01425980     0.02916850
Si     3.78033282    -0.37001739     6.11230868     0.00481111     0.01450579     0.00474851
Si     5.02020595     1.41186427     1.82783049    -0.01332146     0.00162362     0.00692729
Si     7.63330174     5.06834814    -0.07745614     0.03982982     0.00340184    -0.00996247
Si     3.37062535     3.02674732     2.32864669    -0.01938552     0.00994520     0.02679590
Si     6.30631298    -0.21608556     6.30117895     0.01960525     0.02652620     0.08064706
Si     7.25858623    10.92149134     0.57146964    -0.00086981    -0.01934453    -0.01431718
Si     3.52853153     3.23625993     4.70247251    -0.01925891     0.03273430    -0.03867198
Si     2.73184897     5.21815991    -0.44022953     0.00421367     0.04814162     0.01276421
Si     4.74314621    10.09523856     3.18600216     0.00088871    -0.01382782     0.03500287
Si     1.65508277     1.14997939     1.49386570     0.02975929     0.05729353    -0.02943243
Si     8.05791572     6.67166971     8.14386572     0.05550455    -0.02449697     0.03078968
Si     7.20940353     9.12926879     2.73130494     0.00242858    -0.00528684    -0.02160178
Si     8.43756859     3.70382855     8.16418043    -0.02544917    -0.02372143     0.00783772
Si     7.54887697     4.85543094     2.43091186    -0.00914239     0.05123426     0.06652985
Si     2.43174296     8.31790169     9.06447063     0.02440599    -0.02211641    -0.01155381
Si     1.15713412     8.69903261     2.73950036     0.03393021    -0.01629112     0.05759707
Si     2.48468100     3.36404051     8.79366682    -0.01141929    -0.00041178    -0.02218523
Si     9.07115788     8.35733541    12.34513079    -0.04086318     0.02071661    -0.05443404
Si     4.77081351     8.31901056    14.29324978     0.02584653     0.01015419     0.04142761
128
Lattice="10.313 -0.120 0.503 0.000 11.578 -0.617 0.000 0.000 20.121" Properties=species:S:1:pos:R:3:forces:R:3 energy=-613.17498779 virial="-171.77474230 -0.77247118 -0.59456989 -0.77247118 -173.58758375 -2.89700824 -0.59456989 -2.89700824 -168.85232195"
Si     0.86704067     5.15330063     0.74398428     0.02234902    -0.01905607     0.09888295
Si     4.59074778     9.43376573    18.94295077     0.29176879    -0.00933838     0.00326678
Si     4.64990343     3.37865361    15.10335929     0.17612931     0.15218012     0.35466650
Si     5.90376570     2.81310545     9.49714314     0.18059388    -0.19153066     0.11108866
Si     8.15210080     9.80393253    16.25457021    -0.08195674     0.05371245     0.29648611
Si    -0.45086798     8.38191893    19.70336800    -0.20055009     0.12510525     0.28723186
Si    -0.86853057     2.72254250    13.68296241     0.12393138     0.05189621    -0.21965258
Si     1.14451507     2.14546177     8.36073754     0.14394440    -0.11061881    -0.21619554
Si     6.36166105     7.22991734    19.09207162    -0.00762149    -0.18058878     0.20797832
Si     8.29144405     8.01359361    13.72806203    -0.30512083     0.02587571     0.06246283
Si     7.00623812     0.56069325    18.83458532     0.11774659     0.27366439     0.05842793
Si     6.43781250     1.83750789    13.32222059    -0.14549403     0.16259073     0.05520801
Si     1.57548252     7.85682480    18.01382850    -0.18040219     0.08499449     0.19039033
Si     0.45534252     7.11840734    14.89838818     0.29524842    -0.16506939    -0.19306985
Si     0.51348274     3.00928272    16.31342943    -0.02810680    -0.06105213    -0.24477775
Si     2.23999097     1.52988935    18.01293415    -0.17724110     0.33393604    -0.11600380
Si     4.19922256     6.95545332    17.36707570     0.13207400    -0.06166762     0.19152808
Si     5.58871484     6.51228260    11.86777572     0.01299185    -0.25510371    -0.00349335
Si     4.39946837    11.95440717    19.59074820     0.11805287     0.01573077     0.38921276
Si     5.00849854    -0.89537670    12.40200346    -0.08005938    -0.02976127     0.10552983
Si     0.66605469     5.27261502    18.00538688     0.01027660     0.23613773     0.30020720
Si    -0.14999804     5.40555202    12.85907537     0.11035786     0.14179975    -0.16639650
Si    10.18181550    11.50651291    18.64258303     0.10363024     0.03002946    -0.11635562
Si    10.23299127    12.00208521    10.22427341     0.25077736     0.06152564    -0.03758373
Si     3.12079535    10.87919223    16.16968690    -0.17800516     0.01163116     0.09659328
Si     7.67412859     8.88694095    11.33367778     0.05044143    -0.07893240    -0.09771833
Si     6.14759364     4.86127371    17.29093356    -0.28639939     0.03399859     0.13545309
Si     5.21693914     3.80154755    11.87187623     0.08007962    -0.34631529    -0.20576219
Si     1.02789101    12.03361614    14.91819919     0.12629493     0.06989351     0.15307994
Si     1.63332432     0.32894936    12.30123815     0.06829312     0.20361428    -0.00457666
Si     0.21927699     9.28450101    10.91395095     0.05704921    -0.11299255     0.06066477
Si     5.47855045     8.68510060    13.60812956     0.19496839     0.18392524     0.06550052
Si     6.92181559     7.17453898    15.75086747     0.05042521     0.15919523    -0.15336946
Si     7.12086868     2.64112647    15.80510940     0.08291139    -0.03264112    -0.37119585
Si     7.15808128     4.92981745    13.69287346     0.05210394     0.16765113    -0.28114817
Si     0.47567918     9.63689452    16.32908584    -0.05426549     0.00440388    -0.03678037
Si     1.58756521     7.62340822    12.36824130     0.00209201    -0.07757918    -0.15792868
Si     3.49879931     3.92884521    17.48665727     0.08142541    -0.00299213    -0.26763979
Si     1.96863935     2.57692789    13.88603758    -0.26681346    -0.25277016     0.07427178
Si     9.00588035     7.29755248    17.37022021     0.02494338    -0.20022020    -0.30229914
Si     8.18523962     6.03784944    11.28188778    -0.28497484    -0.23177288     0.14979872
Si     8.87658780     0.84124402    16.83799262    -0.13259187    -0.04442063     0.32031789
Si     8.14040989     3.13650549    11.48696136     0.20036465     0.21041027    -0.01848602
Si     3.01292872     8.23875512    15.26396432     0.18574817     0.03468735    -0.10203850
Si     3.31518783     6.56482085    10.25716074    -0.13886568     0.04233786     0.10245195
Si     5.17609482     1.11767862    17.04596858     0.13259752    -0.05032058    -0.17267640
Si     3.06915889     3.25577168    20.25479816     0.22631226    -0.16556586     0.01842931
Si     4.45093903     5.97017015    14.44780823     0.02924798    -0.05454057    -0.09161294
Si     6.33299540     5.78572184     9.12356902    -0.03001350     0.15775344    -0.09696840
Si     6.50740102    -0.41914613    15.22483134    -0.03447669    -0.06968877    -0.04916440
Si     7.58665951    11.54465233    11.04558293     0.11333308    -0.27023950     0.10556287
Si     1.93249710     4.98575573    15.57682951     0.00770818     0.01122836     0.11097485
Si     2.67606695     5.06504362    12.87940541    -0.16213708    -0.13527271     0.01901354
Si     3.99838211    12.38142816    14.05515239     0.07966515    -0.01742802    -0.18050916
Si     2.49987554    -0.06399402     9.24462254    -0.11719692    -0.01438654     0.27885857
Si     7.87277530     9.43529791    18.94244597    -0.06820218    -0.08836526    -0.03423831
Si     9.13818234    11.60995578    13.16060121     0.00346582     0.22553782     0.02068509
Si     8.51900811     3.20348457    18.73725901     0.07179416     0.08814516     0.27285695
Si     8.67421086     4.68170231    16.50592720    -0.21791118    -0.35860869     0.29751503
Si     2.11907294    10.41637300    18.64788991     0.22708735    -0.01457868    -0.15968974
Si     2.74677786    10.01362206    13.13855477     0.01016857    -0.09668037    -0.19354263
Si     3.88220011     1.40686058    11.23634407    -0.18840076    -0.28871611    -0.07874276
Si     0.64453127     2.97323673    11.15085356    -0.22079146     0.05715216    -0.00965340
Si     7.85276834     9.91271388     8.83131437    -0.19742173    -0.29382595    -0.06239212
Si     6.32787808     9.29873139     5.16422898    -0.19752787     0.03615240    -0.02898951
Si     9.48201659    10.23846407     5.65945358    -0.08052040    -0.14808139    -0.15769660
Si     0.60909112     6.15875748    10.14993685    -0.26837549     0.20935240     0.10598804
Si     1.55872001     4.24891740     3.43870515    -0.06342803    -0.00258365    -0.24556738
Si     0.55231820     2.81318843    -0.65395370    -0.34900948     0.06275865    -0.01823860
Si     6.99135905     7.56119009     7.25698437    -0.07807578    -0.07529294     0.02940251
Si     6.36030049     6.85622268     3.48968925     0.23895830     0.06680569     0.15137126
Si     8.43453459     1.38172571     9.21465149    -0.13597187     0.23221232     0.04820094
Si     7.99132707     1.49020155     4.11270407    -0.09417942     0.21393482     0.22777373
Si     1.73832742     5.48309947     6.80759061     0.11333223     0.11670958    -0.00443748
Si     0.96888321     6.63093545     4.66881434     0.04001858     0.15232147     0.06016470
Si     1.67905866    -0.00573734     6.59451513     0.05191352    -0.26426661     0.13720870
Si     0.46830424     0.86091888     3.95919378     0.16866913    -0.19791405     0.06633207
Si     6.26261241     1.79621998     6.17304499     0.02768656    -0.29479048    -0.23598662
Si     4.06637433     4.96027560     8.05607980    -0.11323666     0.26342025     0.22216877
Si     5.65898477    11.75704100     9.12765795    -0.07458755     0.29241905     0.10729277
Si     3.43211736    -0.91520075     2.45702029    -0.06964610    -0.09820744     0.27714968
Si    -0.89093107     6.13550188     6.67066973    -0.03986873    -0.04826998    -0.29366204
Si     0.33382055     7.49885046     2.26794969     0.13264136     0.18441872    -0.03106445
Si    10.53744893     9.94249363     8.39575404     0.11373072    -0.13880064     0.06238142
Si     9.92828042    14.38612606     1.78805618     0.16125202     0.16078772     0.00719170
Si     4.21119954     8.55657665     7.03872118     0.08183545     0.10260486    -0.23933128
Si     6.52665221    10.25406284     1.04390618     0.09763640    -0.07277556    -0.03465854
Si     6.45065117     5.28793563     6.10608135    -0.17178479    -0.15368795     0.12997149
Si     5.18376493     5.18244462     0.83425596    -0.38041633     0.01239691     0.03460718
Si     1.74388381     8.93105594     5.67157740     0.22051482     0.11084285    -0.28355259
Si    -0.01190787    10.76174803     1.00937243    -0.04465166     0.12157794     0.05298120
Si     1.18842980     3.08156749     5.74491998     0.12479454     0.06887590    -0.12757346
Si     2.91731818     6.38536407     2.43339820    -0.08272573     0.07826002     0.14286995
Si     5.49577815     8.44848672     9.54396940     0.00812423    -0.01728927    -0.13853297
Si     5.51793924     2.99946274    19.05121722     0.12489948     0.09910242     0.01463302
Si     3.89865276     8.72630123     3.80731122     0.19636245    -0.12726054     0.04919872
Si     7.66095823     3.65650164     7.78943229    -0.15519080     0.03881404    -0.00773335
Si     8.92144692     3.96824046     5.02545207     0.07473676     0.16611594    -0.00610531
Si     6.55397716     3.99456892     3.84837084     0.03027426     0.16397643    -0.03513853
Si     1.80124888     7.76946330     8.19644977     0.05667768     0.12372383    -0.04276971
Si     2.36310415     8.49695352     0.53788868     0.19523123    -0.04223625    -0.15556261
Si     3.75450838     2.45772253     8.01268713     0.13847888     0.16952270     0.10886852
Si     3.02138831     1.32176592     4.39637430    -0.12287652     0.08404516    -0.11637791
Si     8.69671566     7.66719111     5.06513598    -0.17333785     0.09386111     0.22390600
Si     7.94872644     8.11456069     1.94963513     0.23768763     0.29232109     0.08905273
Si     9.22796619     1.56389196     6.55804035     0.04201169     0.20584802    -0.27533370
Si     7.46625361     3.38793388     1.05838492    -0.13724145     0.10433299    -0.00235277
Si     3.88576090     6.30099450     5.20604330    -0.08725569     0.02344977     0.18902773
Si     5.04363997     8.07611551     1.34329942     0.08258675    -0.09459689    -0.08821043
Si     4.40794688    -0.24140894     7.49214916    -0.15708694    -0.06561502     0.24150667
Si     5.85761768     1.50504816     2.10071843    -0.01830642    -0.08847784     0.05496846
Si     8.75304895     5.91007820    -0.22315850     0.14200586     0.05997971    -0.15063806
Si     4.11533042     3.38567622     2.75242287    -0.02795877    -0.04040273    -0.02793248
Si     7.23779100    -0.34678377     7.38445878     0.12837048     0.01000081    -0.13857234
Si     8.32174868    12.06739620     0.39034158    -0.04423819    -0.05880715    -0.21559893
Si     4.22273424     3.55256535     5.54024971     0.21797985    -0.08394399    -0.03853856
Si     2.96140508     5.99402920    -0.59273954    -0.04208547    -0.15451945     0.02850400
Si     5.41182062    11.50555709     3.60131180    -0.12508066     0.14360711    -0.25061041
Si     2.00309609     1.18621103     1.63514115    -0.10902682    -0.15414916     0.28149053
Si     9.20729611     7.67826623     9.34998119     0.32879433    -0.06273673     0.26234013
Si     8.24653991    10.39866812     3.33843583    -0.06150791    -0.02470246    -0.18235263
Si     9.88846966     3.99693033     9.42098459    -0.03774518    -0.05563447     0.14778161
Si     8.62787848     5.38945625     2.77051586    -0.04340707    -0.22562884    -0.26197922
Si     2.73261789     9.44568014    10.21485286    -0.08600564    -0.13519756    -0.02215326
Si     1.28342970     9.88559370     3.25567734    -0.06792447     0.01641371    -0.22543857
Si     2.99493231     3.84984914    10.35708117    -0.02912421    -0.14365731     0.42760566
Si    10.29404106     9.57855809    14.16122063    -0.07212581    -0.07162356    -0.21127211
Si     5.54743604     9.33855556    16.48799967    -0.17903785    -0.12138346    -0.27421668
128
Lattice="9.402 -0.107 0.463 0.000 10.353 -0.567 0.000 0.000 18.505" Properties=species:S:1:pos:R:3:forces:R:3 energy=-620.22332764 virial="179.82610043 3.03646362 4.77856102 3.03646362 172.06812888 -11.60762734 4.77856102 -11.60762734 168.54559197"
Si     0.74764337     4.69843330     0.76158997    -0.08976784     0.62547439     0.11347109
Si     4.21584111     8.47614817    17.39799397     0.70052117    -0.31497949    -0.13898414
Si     4.37508576     3.06668470    14.03469429    -0.19026479    -0.24043483    -0.67138386
Si     5.68676926     2.37688741     8.69384473    -0.39194947     0.37782723    -0.21263176
Si     7.35358471     8.99563934    15.21743025     0.04794078    -0.54881495    -1.11142373
Si    -0.60676428     7.61171691    18.38681513     0.75862813     0.35447890    -0.65281725
Si    -0.69725375     2.43907357    12.40163607    -0.60358763     1.05108821     0.17622937
Si     1.29514678     1.84829202     7.37548979    -0.84822208     0.41380137    -0.39236116
Si     5.74497326     6.54508406    17.59121848     0.18206625    -1.00415492     0.18053201
Si     7.28507290     7.52234313    12.59566515     0.41690689    -0.31301484     0.61124581
Si     6.46720579     0.77677362    17.27119164    -0.57686871    -0.21526618     0.68786043
Si     5.84724941     1.72138371    12.32048617     0.11947983    -1.23110759    -0.47699839
Si     1.00742922     7.22714383    16.82838421     0.58699948     0.17363852    -0.85882199
Si     0.64094033     6.25392971    13.48668553    -0.83384025     1.12415242     0.18044391
Si     0.33197996     2.66603305    14.84312491    -0.54072660     0.69975078     0.07016906
Si     1.98326332     1.57988110    16.50743690     0.40101188    -0.87033772    -0.10396363
Si     3.72362658     6.28639959    16.06367290    -0.98359174     0.64736807    -0.35009634
Si     4.89443207     5.58901113    10.88267263    -0.70889109     0.40007725     0.30001494
Si     4.15060311    10.60513423    18.37051453    -0.84883744     0.19530317    -0.87193567
Si     4.35420232    -0.77074717    11.58499257     0.48977771     0.15953742    -0.71557659
Si     0.57416294     4.99288456    16.65749853    -0.16080083    -1.24950480    -0.69836360
Si    -0.11631296     4.77980063    11.67781334    -0.94931543    -0.26537681     0.23486722
Si     9.48213845    10.36407045    16.98949202    -0.49997634     0.11490281    -0.03570551
Si     9.32981014    10.84761879     9.38933423    -1.05942655    -0.68919468     0.38330182
Si     2.85363436     9.77658773    14.98594705     0.65059632     0.17364717    -0.30271605
Si     7.14607267     7.90176009    10.39407373    -0.72863936    -0.46060592    -0.16757517
Si     5.27816102     4.62029848    15.93610531     0.88867873    -0.18721421    -0.15129396
Si     4.99763095     3.06888650    10.73283574    -0.22662555     1.21545637     0.54262763
Si     0.96299587    10.80338873    13.93535295     0.20731066    -0.87459034    -0.49253041
Si     1.59315210     0.36083365    11.17278328    -1.10304189    -1.15743411     0.47216874
Si     0.20685824     8.35981661     9.97557539    -0.07602587     0.48475114    -0.25759059
Si     4.92034970     7.82205915    12.51082102    -0.62473470    -0.67277545    -0.30350599
Si     6.25131990     6.45965093    14.31733671    -0.41370174    -1.25361133     0.31813639
Si     6.56791243     2.35815235    14.37665475     0.61997223    -0.27850294     0.15050428
Si     6.55177238     4.59188717    12.39619311     0.13431892    -0.20947710     1.25832808
Si     0.37259693     8.55241391    14.87271108     0.03858623    -0.26864898    -0.07649664
Si     1.35405322     6.71091905    11.25614144     0.57282054     0.57717383     0.22059615
Si     3.08952718     3.46736607    15.90814193     0.30910161     0.59688580     0.89032882
Si     1.64318575     2.01867897    12.74681239     0.81369835     0.89582384     0.48316610
Si     8.26679415     6.35947634    15.54046893    -0.03674316    -0.40873924     0.49748912
Si     7.27311762     5.39447881    10.33991736     0.34154481     0.20165552    -0.81718814
Si     8.05605613     0.86327382    15.58058350     0.29998058     0.05372367    -0.66495287
Si     7.64308036     2.97413161    10.46860347    -0.82503915    -0.49386272     0.21861622
Si     2.82705399     7.51473898    13.96608943    -0.49380645    -0.42180052    -0.17471759
Si     2.78849773     5.84065514     9.55415580     0.46166849    -0.25467524    -0.24780338
Si     4.86826134     0.89653387    15.63647014    -1.08516085     0.07431700    -0.30263704
Si     2.99874261     2.79773578    18.81972571    -0.41870993    -0.89244837    -0.39834478
Si     4.02990036     5.33141358    13.38197057     0.60156435     0.49999365    -0.39060572
Si     5.68936365     5.14277116     8.40216213     0.78103501    -0.47260725     0.43074110
Si     5.91971335    -0.49780099    13.95844492     0.78464806     0.25178546    -0.60670781
Si     6.85823937    10.20553524    10.25395345     0.43514842     0.30268669     0.70422220
Si     1.63656146     4.47528214    14.44422340     0.51997155     0.30399680    -0.05870728
Si     2.30865763     4.49167684    12.02258562    -0.15694897    -0.13292074     0.81576169
Si     3.68630527    11.08116225    12.86948050    -0.39963982     0.19591577    -0.35413361
Si     1.99090898    -0.09421564     8.63979928     0.59312904    -0.00472414    -0.14048733
Si     7.22359897     8.38538155    17.37755477    -0.35259813    -0.11721244     0.15000229
Si     8.33043313    10.45603727    11.92926051     0.29841927    -0.07000633     0.75492364
Si     7.85149010     2.85902905    17.60059148    -0.78113312    -0.33680868    -0.09447175