128
Lattice="11.641 0.000 0.000 0.000 11.658 0.000 0.000 0.000 23.166" Properties=species:S:1:pos:R:3:forces:R:3 energy=-666.24578857 virial="-213.38829041 -3.12622285 -0.97356856 -3.12622285 -215.23580933 -3.07645631 -0.97356856 -3.07645631 -207.45877075"
Si     1.56043695     4.33831386     1.44716033    -0.11040550     0.03854720    -0.03168218
Si     5.94789812     8.89173179    23.25118481    -0.21728221    -0.54938173    -0.19334926
Si     5.80480431     3.03338551    17.44790535    -0.01443785    -0.40137923    -0.35970843
Si     5.85984489     2.94380005    11.50048636    -0.10948033    -0.33028489     0.21844095
Si    11.60540223     8.73824174    17.33687586     0.06552439    -0.01499085     0.15018305
Si     0.00664595     8.76632897    23.15000863     0.09339288     0.06539583     0.16416660
Si    -0.05147592     2.93960395    17.32074276     0.43078533    -0.47972465     0.18948159
Si    -0.05853280     2.82331520    11.65285089     0.08828491     0.20339268    -0.11448759
Si     7.32034649     7.42291953    21.67031953    -0.06724878    -0.10209175     0.22732010
Si     7.24338490     7.21841862    15.97080250     0.17163846     0.21304810    -0.38216478
Si     7.35751541     1.37733549    21.68451057    -0.36983499     0.34931061     0.11114725
Si     7.30176780     1.52536563    15.96047527    -0.42381525    -0.19671133     0.16393338
Si     1.55700725     7.36725308    21.77463148    -0.22682491    -0.42724228    -0.08169673
Si     1.31542076     7.20425571    15.93755176     0.44160727     0.24966083    -0.12710990
Si     1.52691255     4.35932997    18.76635920    -0.21685857     0.08787058    -0.13507113
Si     1.54500654     1.44714301    21.53480301    -0.68541980     0.05826462     0.30685642
Si     5.76338648     6.08172022    20.29247595     0.31528902    -0.76262552     0.08289565
Si     5.80456523     5.86066277    14.39187663     0.20640561    -0.14980806     0.26005191
Si     5.86219122    11.69044940    20.24595360    -0.21370947    -0.08273807     0.14994860
Si     5.88979543     0.00724650    14.54060053    -0.31815913     0.05873952    -0.48893800
Si     0.12509669     5.76917683    20.25635879    -0.08677623     0.34088135     0.17101252
Si    -0.15073092     5.78787056    14.48634005     0.65440369     0.01419848    -0.13632862
Si    11.51754868    11.71063651    20.13028682     0.65080929    -0.01679111     0.30730510
Si    11.58070869    11.54854473    14.50900931     0.32322168    -0.05934960    -0.20572725
Si     7.24274228    10.19604019    18.89316576     0.15272328    -0.32095692    -0.43629134
Si     7.23317886    10.18922631    13.00860495     0.11110942    -0.04577451    -0.03800008
Si     7.20137148     4.45191928    18.90884648     0.17183337     0.20532215    -0.17707270
Si     7.26475934     4.34231962    12.98709922     0.01836310     0.26636627     0.00135258
Si     1.43955643    10.30714415    18.76493411    -0.24781147    -0.30195317     0.01730604
Si     1.40950699     1.40607749    15.81322195     0.01832282     0.19590247     0.46945354
Si     1.59118910    10.08678153    13.10780321    -0.66422820     0.15992807     0.00928774
Si     5.81799815     8.66468111    17.42156417    -0.00401228     0.60848355    -0.16922823
Si     8.71970854     5.81595729    17.41462724     0.08922862    -0.11288606     0.06834921
Si     8.73215241     2.97103301    20.22689171    -0.12176145    -0.23290913     0.24462913
Si     8.66200630     2.92083849    14.45882167     0.49441063    -0.25187293     0.13348031
Si     2.84622713     8.92599960    20.38183579     0.53323090    -0.27278781    -0.47651017
Si     2.95880112     8.63810714    14.59674686    -0.25361255     0.10561915    -0.54654443
Si     2.97106513     2.96651732    20.18145281     0.13842687    -0.04228695     0.39068592
Si     2.92118178     2.85734777    14.43842990     0.03649507     0.26492828    -0.08255106
Si    10.30216672     7.22108159    18.84687085    -0.32814041     0.13141268    -0.24037923
Si    10.25349474     7.33760232    12.96472736    -0.45277673    -0.29712731     0.07366585
Si    10.07538923     1.47421456    18.75627116     0.15289375     0.08622111    -0.09831671
Si    10.18676973     1.31456269    13.06811944    -0.25472993     0.51456267     0.04736171
Si     4.27608087     7.44349196    18.85628919    -0.12818475    -0.33812201     0.02340380
Si     4.36027028     7.32984365    12.99148508     0.02488055    -0.29170465     0.21640012
Si     4.29251665     1.45024487    18.78332617     0.54639781     0.20365405    -0.07267214
Si     4.52542803     4.42690826    21.79347698    -0.59134734    -0.23166214    -0.46441144
Si     4.42084334     4.44411249    15.89341288    -0.38415328    -0.25570920    -0.01101176
Si     8.76014624     5.80303796    11.56564768     0.04642127     0.42619541     0.11199468
Si     8.61798065    -0.06612250    17.40477232     0.33767205     0.31797391    -0.31318119
Si     8.77930266    11.57371139    11.61229869    -0.19154683     0.09470747    -0.09410036
Si     2.90993072     5.88652120    17.31409690    -0.03446878    -0.12881601     0.28476250
Si     2.90342313     5.80602946    11.67969178    -0.01387152     0.22605661    -0.51409304
Si     2.89670418    11.67942737    17.29455312     0.04576205    -0.13417105    -0.03660270
Si     2.91802459    -0.12731569    11.66443084     0.15540665     0.27141604    -0.47940111
Si    10.23110278    10.18992422    21.64683114    -0.16893625     0.07779434     0.13540283
Si    10.06492309    10.11670015    15.88146126     0.18479800     0.14671689     0.27056083
Si    10.22714276     4.36278035    21.66312787     0.01679711     0.09054318     0.05405841
Si    10.16644654     4.31609891    15.97885765    -0.55091989     0.36063603    -0.43941078
Si     4.51772907    10.24906320    21.77948902    -0.66072983     0.02977121    -0.21892378
Si     4.40965134    10.13922070    15.87423946     0.01606828     0.20526853     0.59098774
Si     4.40479203     1.43897871    12.94158771     0.02688326    -0.05841357     0.47571808
Si     1.41808449     4.33545516    13.01912590    -0.06479061    -0.09811626     0.37406355
Si     8.75739263     8.82154514     8.60322142     0.03394969     0.13087238     0.46937090
Si     8.66687527     8.55817087     2.92180955     0.36525202     0.58161533     0.01486084
Si    11.65646127     8.83228355     5.75904028    -0.03954425     0.14918934     0.27435207
Si     0.09562177     8.77720374    11.52148724    -0.12478646    -0.12722325     0.33960915
Si     0.04792798     2.93858093     5.89898253    -0.46599692    -0.01224529     0.07768148
Si     0.09921025     2.89590084    -0.09073095     0.10865888     0.11060113    -0.09958373
Si     7.39834897     7.40109812    10.14382116    -0.29239446    -0.46128201    -0.23458648
Si     7.22994036     7.14873824     4.43387804    -0.08844756     0.19110104    -0.44031549
Si     7.32924442     1.32622882    10.14917925    -0.31068662     0.36390913     0.05348815
Si     7.28643817     1.66062890     4.33856498    -0.23701185    -0.61948973     0.00512305
Si     1.47523488     7.28669620    10.14531730     0.14573446    -0.18824595    -0.05979470
Si     1.35424871     7.34557104     4.32566266     0.41536817    -0.29883313    -0.21917590
Si     1.36550060     1.35937454    10.25957363     0.20607844     0.17811491    -0.28866526
Si     1.48712296     1.53028622     4.50715094    -0.33469170    -0.42712229    -0.74683237
Si     5.69061025     2.81217771     5.97336373     0.35670027     0.58443809    -0.24047607
Si     5.93136206     5.91256070     8.71418483    -0.49477136    -0.21348009     0.01979942
Si     5.78956660    11.60926482     8.68490231     0.06824156    -0.17509328     0.39499146
Si     5.80875586     0.05887576     2.95246629     0.29511836    -0.24230550    -0.08564280
Si     0.05635089     5.83751397     8.67700119    -0.09924626     0.07587624     0.22702937
Si     0.00241339     5.78736348     2.83120617     0.06547353     0.26223713     0.35519105
Si    11.63195643    11.69569186     8.56195173    -0.09216314    -0.05073406     0.93545198
Si    11.55829354    11.69474516     2.93825563     0.35601103     0.21360408    -0.06866337
Si     7.13989399    10.19520167     7.19265726     0.40331122     0.04087082    -0.23854759
Si     7.36709700    10.22961657     1.55213139    -0.25646102     0.03246459    -0.07934237
Si     7.19610265     4.28587221     7.35535470     0.28331539     0.19968021    -0.28802639
Si     7.30098865     4.32244805     1.37254673    -0.33850724     0.08506563     0.19232172
Si     1.54406904    10.27119284     7.31713149    -0.30763859    -0.27180886    -0.91427958
Si     1.39910492    10.28403392     1.50009244    -0.16598268    -0.53611773    -0.30688179
Si     1.52031366     4.31827588     7.28751871    -0.20800363     0.37709990     0.09967239
Si     5.76022821     5.73447750     2.93309722     0.54755616     0.17972538    -0.11027037
Si     5.78419769     8.74263454    11.48547860     0.26539892     0.03073318     0.38759857
Si     5.74745319     2.68904716    23.19239659     0.61604780     0.69256306    -0.04464256
Si     5.71966614     8.68065227     5.74184556     0.25750956     0.13033383     0.13136253
Si     8.66839764     2.86452297     8.76626970     0.23323798     0.18454546     0.01923486
Si     8.70432237     5.78226602     5.85395166     0.09475900     0.31726897     0.54906315
Si     8.88716414     3.07225348     2.82299778    -0.35730976    -0.39741594     0.31232497
Si     2.91054141     8.69601598     8.65384368     0.06252389    -0.08475415     0.03271914
Si     2.84742179     8.73908806     2.85135097     0.15525654     0.17744017     0.14626056
Si     2.82827355     2.92156108     8.89983576     0.27822763    -0.12033511    -0.36412594
Si     2.92639681     2.84642248     2.99018253    -0.01013124     0.25285533    -0.17676319
Si    10.30925328     7.44498970     7.30218866    -0.49516749    -0.77413410    -0.46751916
Si    10.22319343     7.26058666     1.38052847    -0.38260978    -0.14945808     0.09393631
Si    10.03550155     1.46036523     7.28443118     0.56590915     0.04207920    -0.42122906
Si    10.28390003     1.50929844     1.32005696    -0.32340842    -0.14852205     0.49689665
Si     4.36524099     7.20884425     7.19207270    -0.10314669     0.31293696     0.15184988
Si     4.44942169     7.32905677     1.48547221    -0.13348931     0.01005025    -0.00249443
Si     4.26201663     1.39006902     7.50725897     0.04189984     0.18775815    -1.02602839
Si     4.26118127     1.29047273     1.51705468    -0.01075136     0.37987700    -0.43344992
Si     8.66480695     5.85217470    -0.10158660     0.47734797    -0.09002567     0.16789457
Si     4.37146440     4.35724383     4.42444981    -0.30832916    -0.32186717    -0.09800319
Si     8.60659331     0.06621070     5.72666593     0.14892949    -0.16697183     0.24370438
Si     8.75231988    11.61185735    -0.01880674     0.37374026     0.16955842     0.00833440
Si     2.87034891     5.84811179     5.73240987     0.03347326    -0.19976845     0.34944409
Si     3.08769053     5.85905653     0.03586381    -0.45285386     0.03281647     0.03383642
Si     2.95531925    11.65434324     5.71154911    -0.14349207     0.07121098     1.01273966
Si     2.75617296    -0.13406766    -0.13531327     0.83850884     0.63498557     0.55593926
Si    10.24649609    10.24272734    10.12929140    -0.05892812    -0.14453869    -0.32515758
Si    10.07698691    10.20043063     4.31165741     0.09972845    -0.02984029     0.13274226
Si    10.20479979     4.40169633    10.18349072    -0.04762864    -0.43825459    -0.28494233
Si    10.22564267     4.47803537     4.50247770     0.20657708    -0.49818349    -0.84217727
Si     4.34532683    10.09567248    10.05216676    -0.02241274     0.39377499     0.34254590
Si     4.33228164    10.19563137     4.28030626     0.06981408    -0.09777942     0.13532224
Si     4.38997018     4.46644414    10.15196311    -0.03333066    -0.23101015     0.17404392
Si     8.68455936     8.70743144    14.37190336    -0.00784690    -0.12099858     0.38913542
Si     8.84979728     8.72038007    20.20473740    -0.30570036     0.18018445     0.25104222
128
Lattice="10.366 0.000 0.000 0.000 10.248 0.000 0.000 0.000 21.396" Properties=species:S:1:pos:R:3:forces:R:3 energy=-662.52789307 virial="255.38119507 19.32974243 11.13941765 19.32974243 266.95083618 24.17330551 11.13941765 24.17330551 238.06707764"
Si     1.43216462     3.86952710     1.27397982    -0.44214642     0.39840251     0.27164823
Si     5.21171962     7.70267212    21.47670062    -0.36659482     1.42915463     0.52852356
Si     5.19617399     2.79639648    15.87611962    -0.09161815     2.51130271     1.64539456
Si     5.13517171     2.45880863    10.87084246     1.63115907     1.06302261    -0.58654970
Si    10.36883906     7.54225306    16.01555353    -0.27396539     0.03930452    -0.56810665
Si    -0.04895599     7.65145800    21.39357730    -0.57925057    -0.41751426    -0.87020558
Si     0.11875861     2.49816920    15.94575035    -1.48381519     0.56321633    -0.06031980
Si    -0.13656958     2.46613360    10.82938150     1.21122313    -0.48795384    -0.05672471
Si     6.61115814     6.57320991    20.23274715     0.28759477    -1.04567099    -0.92804438
Si     6.46674606     6.39037431    14.64097699    -1.22610736    -1.02108204     2.92486238
Si     6.43494163     1.35011552    20.13017109     1.08140635    -2.18019485    -0.27398658
Si     6.11604293     1.25684035    14.82163778     2.21684551    -1.73847961    -1.99927330
Si     1.38774372     6.40384310    20.10169556     0.92437983     1.58841717     0.03075783
Si     1.32808743     6.37640504    14.51864902    -0.99418753    -0.49729615     1.32278252
Si     1.42246418     3.86961767    17.27358964    -1.13498044    -1.02391815     1.32368922
Si     1.25112699     1.32220163    19.90507504     2.62794209     0.24942049     0.77169454
Si     5.23022498     5.26568909    18.87775149    -0.51997805     0.75676334    -0.48277164
Si     5.33387995     4.97628864    13.44504673    -1.21120477    -0.37938875    -0.01803921
Si     5.21683129    10.27856882    18.71209159    -0.20478997     0.04838516    -0.74990058
Si     5.14727960    -0.01248550    13.22190946     1.31661153    -1.94947338     2.79973483
Si     0.18664139     5.26857838    18.69489291    -0.33218038    -1.11080146    -1.17679048
Si    -0.00746738     5.06687343    13.27635869    -0.82031113     0.18622136     0.89364302
Si    10.44787342    10.43349850    18.58343007    -1.76184392    -1.24728346    -1.69034028
Si    10.27030324    10.00331898    13.42228241    -0.35045749     1.79616189     0.93484819
Si     6.54853408     8.88581380    17.30324691     0.35876030     1.50218654     0.94814366
Si     6.48581923     8.92820272    12.03719441     0.87233210    -0.10420457     1.19831955
Si     6.44592438     4.03677841    17.43899764    -0.57544267    -1.45661354     0.35625553
Si     6.56000886     3.96609515    11.92170774     0.53227407    -1.43514109    -0.05066656
Si     1.18847816     8.93608592    17.29715653     0.60884613     1.25808394    -0.59622121
Si     1.37620314     1.19911320    14.52937285    -2.17045450     0.04653320    -0.23614681
Si     1.17508682     8.87564466    12.14097701     1.95473230    -0.25861531    -1.70041370
Si     5.22961510     7.77272246    15.97877180    -0.83155155    -1.77020288     0.34131667
Si     7.74993563     5.14271881    16.09374141    -0.86798394     0.16083878    -1.24869895
Si     7.65806448     2.58852169    18.81312624     1.08073318     0.84269357    -1.21338892
Si     7.63658386     2.38306925    13.42027510    -0.01805401     0.26590654    -0.58105826
Si     2.65386743     7.92174653    18.59599049    -0.94226903    -0.84801483     1.39679527
Si     2.62300989     7.61104407    13.31541246     1.40633953     1.27042663     0.03592557
Si     2.73487616     2.56499245    18.68058098    -1.03004718    -0.79954690    -1.39998960
Si     2.54665668     2.58600679    13.32570405     1.29147410    -1.61889994    -0.62390959
Si     9.03574478     6.28252720    17.35740757     1.08762276     1.31192160     1.18304944
Si     9.02150909     6.36092630    12.03061823     1.05038023     0.72763407     1.02770102
Si     8.86407153     1.28968843    17.29536253     1.14590847     0.76575321     0.12788162
Si     9.03317807     1.04052377    12.02600690    -0.95216072     0.22363193     0.76127088
Si     3.73543810     6.46123451    17.37449413     2.23358965    -0.19369262    -0.15693411
Si     4.00789658     6.23375052    12.13738680    -0.70149064     0.19503595    -0.94339734
Si     4.01697466     1.42811374    17.09284776    -0.57139182    -1.25566614     2.05135703
Si     3.91950149     3.78142267    19.99283290     0.82809198     1.34929371     1.65450597
Si     3.70065348     3.86734563    14.62247813     1.07375586     0.86353302     0.24340254
Si     7.87566673     5.30492456    10.59705927    -0.54565334    -2.45317268    -1.17689514
Si     7.73107998     0.02491463    15.82890554    -1.04264772     0.33451116     1.25033092
Si     7.69871694    10.08804043    10.60934593     0.71567273     0.43604064    -0.21718220
Si     2.55182360     5.18248054    15.99799873     0.37333816     0.77863669    -0.79501164
Si     2.55143501     5.07262754    10.61567894     0.36932918    -0.26834506     2.08293486
Si     2.58459570    10.36713902    15.92439196    -0.78637755    -0.43582773     2.55226207
Si     2.66055437    -0.09645374    10.68992807    -1.39095426    -0.16651455     1.03638744
Si     9.21807825     9.11053947    19.93610583    -0.17812045    -0.54809445     0.48747110
Si     8.92067557     8.82387655    14.74288040     0.85779852    -0.87250125    -0.18766589
Si     9.26422181     3.90140138    19.91867786    -0.58205646    -0.61687279    -0.31115937
Si     8.83955531     3.95360725    14.60812308     1.70880699    -1.56502652    -0.02990929
Si     3.81388141     9.06752298    20.10260322     1.15319228    -0.11640316     0.36306539
Si     3.86893572     9.07349108    14.82541689     0.54894739    -1.25690520    -2.55728579
Si     3.92513176     1.15098575    12.05785419    -3.22181845     1.68240404    -0.53663850
Si     1.24331552     3.72976387    12.08487743    -0.13555947     0.97631735    -2.03615022
Si     7.78950375     7.82257999     8.03893887    -0.39281511    -1.02740192    -1.25756574
Si     7.88963540     7.62179131     2.78381830    -1.28632379    -0.50575435    -0.71518284
Si    10.20313920     7.69314807     5.20120406     0.81469500    -1.52257216    -0.37503484
Si     0.00178534     7.58528520    10.73086524     0.03963930     0.32177573    -1.03538084
Si    -0.06721221     2.58452933     5.60979107     0.66554964     0.69981462    -1.49550223
Si     0.25791130     2.68590937    -0.16565765    -1.87914515    -0.13397920     1.46401954
Si     6.51033364     6.40193289     9.25971537    -0.57553929     0.59032255    -0.00164820
Si     6.44463429     6.31174407     3.97917440     1.12111259    -0.02565346     0.78513658
Si     6.33706811     1.20555283     9.43733460     0.84933317     0.57545722     0.10373069
Si     6.32773626     1.38140180     4.04469238     0.63039762    -0.26466405     0.80735207
Si     1.39657306     6.37815839     9.31131430    -0.85141885     0.86164683     0.29695639
Si     1.43116037     6.38188634     3.88958569    -0.65127671     0.42172173     1.10933959
Si     1.31496377     1.25620940     9.47952234    -0.15266748     0.19573134     1.58173084
Si     1.06440495     1.21179837     3.98965204     2.54037404     2.35662460     2.74532318
Si     5.25159779     2.75475622     5.40285873    -0.68583286    -0.42502716     0.81907034
Si     5.00819560     5.14172602     8.12091683     0.80354381     0.20289582    -0.69716132
Si     5.17528772    10.09109504     8.17151969    -0.32196042     0.55127865    -2.11598635
Si     5.24331631     0.01377877     2.74252118    -1.38393188     0.14370164    -0.86222780
Si    -0.07195690     5.15755142     8.18455894    -0.48798680     0.56040585     0.07916674
Si     0.09295564     5.18574709     2.53066951    -0.45547840    -0.47492859     0.35616282
Si    10.38380897    10.40512256     8.16149793     0.14264229    -1.07835305    -2.58781576
Si    10.38574873    10.27362835     2.66416025    -1.96723545    -2.22361064    -1.39509785
Si     6.45187165     8.95848281     6.54309298    -0.46576005    -0.12148370     1.33171809
Si     6.63867278     9.06060591     1.48677765     0.12190039    -0.56442332    -1.21061301
Si     6.52659774     3.87851599     6.92341347    -1.10193276    -0.62282276     0.61689281
Si     6.55107706     3.79243924     1.25748576     2.09552240     1.53618002     1.98613036
Si     1.12274278     8.82133484     6.56267951     0.12439369     1.00553155     1.99146771
Si     1.17634929     8.91363748     1.27829128     1.18467426     1.39873600     0.16841604
Si     1.27574419     3.96530068     6.97986216    -0.15067810    -1.64796042    -0.90729755
Si     5.27603548     4.92466992     2.72098092    -1.35160267    -0.18026403     0.09385568
Si     5.29556005     7.62588258    10.80885741    -1.14393175    -1.12516379    -1.24578905
Si     5.35624349     2.65591774    21.41824872    -3.20362735    -0.75866777    -1.05891669
Si     5.17784083     7.61977705     5.26952143    -0.19862437    -0.31642580     0.50608706
Si     7.79258381     2.48724124     8.19508913    -1.03771114    -1.03072286    -1.06902063
Si     7.71292691     5.07255676     5.57362908     0.99025190     0.29234105    -2.56781101
Si     7.71588098     2.50568306     2.78545525     0.19668540     0.58567226    -1.11304617
Si     2.57450624     7.66476986     7.92722491    -0.44319510     1.23997831     0.73689079
Si     2.61060965     7.85853498     2.62892563     0.16657628    -0.39838925     0.37894922
Si     2.52064557     2.57678746     8.26124579     1.33025634     0.41946232    -1.22761512
Si     2.50882877     2.51268368     2.62697197    -0.23031218    -1.08076417     0.60860038
Si     9.12975629     6.37251605     6.70747629    -0.46745288     0.83163971     0.31557137
Si     8.93419260     6.32314913     1.29226728     1.47872806     1.06020427     0.59040415
Si     8.97629116     1.18358779     6.68708270     0.00987194     0.40064010     1.15722775
Si     9.16927000     1.44160970     1.41748991     0.56796682     0.60417420    -0.90400612
Si     3.81675716     6.42969120     6.66367897     0.92454159    -0.83776569    -0.70728832
Si     4.00641435     6.45303537     1.54746524    -0.02975775    -0.38814962    -0.55915517
Si     3.89602782     1.39311471     6.73940254    -0.05455752    -0.65785706     0.53871393
Si     3.93775710     1.38678637     1.26346772     0.84447706    -0.16736193     1.20910454
Si     7.93525259     5.01045913    -0.08075598    -1.43736839    -0.18796854    -0.53382915
Si     3.68428225     3.69233763     4.07996347     0.97839069     1.10096502    -0.09304272
Si     7.68060201     0.05527488     5.31018357    -0.55691826     0.73762339    -0.01257826
Si     8.01760852    10.35232152     0.03311572    -1.36038280    -0.20161262    -0.30357528
Si     2.47983185     5.02020312     5.48316023     0.40855473     0.86477876    -1.16254222
Si     2.72445517     5.20144124     0.07124558     0.79565954     0.03410640    -0.61346376
Si     2.46621387    10.22375720     5.50857471     0.71017140     1.01412106    -1.13640320
Si     2.58701705     0.17921846     0.02967084    -1.35111904    -1.09284520    -0.46413496
Si     9.17747125     8.98213522     9.25880460    -0.13090718    -0.61524975     1.71624207
Si     8.91576371     9.05021531     4.04630345     1.42534685     0.67164707    -0.85904562
Si     9.16506912     3.66446331     9.36002453    -0.62554872     1.73693919     0.94650149
Si     9.15659884     3.80527769     3.85838274     0.16918227     0.73589993     1.90080762
Si     3.89370979     8.84362142     9.45071925    -0.05082863    -1.17399037    -0.46748459
Si     3.90582505     9.00905448     4.10159856    -0.71415901     0.66812265    -0.14214206
Si     3.99110414     3.78447754     9.53918169    -0.59382200    -0.28252774    -0.62018383
Si     7.68758946     7.50098515    13.39992048     1.44509220     2.23884749    -1.96294475
Si     7.87180948     7.71209804    18.71589843     0.00465362    -0.00646264     0.05278281
128
Lattice="11.470 0.000 0.000 0.000 11.412 0.000 0.000 0.000 23.343" Properties=species:S:1:pos:R:3:forces:R:3 energy=-671.25280762 virial="-180.38473511 -2.57229137 -1.62799859 -2.57229137 -174.58328247 -2.67486429 -1.62799859 -2.67486429 -200.43092346"
Si     1.51611699     4.39342967     1.41359559    -0.02720659    -0.27604759     0.10895389
Si     5.75905158     8.68606895    23.43896597     0.28599617    -0.35459891    -0.25537843
Si     5.72405605     3.14881786    17.45107513    -0.02602333    -1.25184369     0.05140024
Si     5.79870931     2.81151369    11.85341496    -0.45890084    -0.37814173    -0.72270077
Si    11.47845465     8.41006455    17.43593501     0.03508756     0.73045158     0.22751708
Si    -0.01616805     8.54563570    23.24020881     0.49387932     0.43037629     0.25600815
Si    -0.09292530     2.88651040    17.37672937     0.56624788    -0.21788120     0.28119007
Si    -0.05296591     2.69257089    11.78820624    -0.17142960     0.32359612    -0.34624055
Si     7.27152883     7.18615520    21.98122422    -0.20727338     0.26875624    -0.09705968
Si     7.07415002     7.08280806    16.13719067     0.42087659     0.13576952    -0.55013347
Si     7.22249035     1.39151208    21.90097297    -0.07356946     0.65087366    -0.19824371
Si     7.00255567     1.37639288    15.95956078     0.21421020     0.19704422     0.42903149
Si     1.58943203     7.28664353    21.85632380    -0.44419205    -0.69303143    -0.01237127
Si     1.44845657     7.13329078    15.93633432     0.06514494    -0.14751068     0.08440959
Si     1.44068422     4.23565820    18.89094713     0.12802011     0.32878560    -0.31511152
Si     1.55436092     1.51348833    21.82803221    -0.56123281    -0.10746232    -0.11754972
Si     5.78627166     5.86610472    20.52104071     0.15423404    -0.37821299    -0.15911980
Si     5.79686321     5.53550128    14.62669915    -0.03439200     0.62227893    -0.16513863
Si     5.76408865    11.42932991    20.36007201     0.19533519     0.22196218     0.38664156
Si     5.66006422    -0.16832856    14.55312215     0.06988619     0.52315104    -0.07572341
Si     0.14310982     5.76501131    20.32159183    -0.15511270     0.03903021     0.31672621
Si    -0.03206997     5.63914006    14.58182636     0.19155836    -0.03402318    -0.30692554
Si    11.45374052    11.50756364    20.23153866     0.30962169     0.01849531     0.56124157
Si    11.35187486    11.28368295    14.62864418     0.27558848    -0.11604364    -0.25085178
Si     7.21653077    10.05108069    18.94704137    -0.20307018    -0.34896672     0.07675982
Si     7.23338953     9.86759507    13.14002820    -0.49092609    -0.03033455    -0.20615819
Si     7.13139716     4.37576000    19.04780916     0.21312700     0.18185052    -0.27532232
Si     7.32831766     4.19890912    13.10947672    -0.75760090     0.27625948     0.07309706
Si     1.40578322    10.01366276    18.83816087     0.07396763    -0.18437597     0.35461292
Si     1.30046952     1.37658646    15.97157626     0.32834622     0.07034628     0.21008301
Si     1.41071173     9.89179400    13.06809856    -0.32887483    -0.06247565     0.56593972
Si     5.68900890     8.56945703    17.53250378     0.42909577     0.25645864    -0.22401452
Si     8.55903040     5.69930668    17.48851157     0.26410210    -0.01334960     0.30762374
Si     8.62104549     2.92336082    20.37631160    -0.10042763    -0.21725714     0.11025196
Si     8.47793600     2.70669482    14.55561397     0.56770360     0.05587591     0.11391693
Si     2.90810129     8.64080088    20.38228751     0.24938071     0.31700772    -0.10211755
Si     2.99236530     8.57847102    14.47785125    -0.73595411    -0.64859092     0.23176000
Si     2.96017123     2.82221737    20.27264018    -0.01565472     0.56391686     0.59484231
Si     2.77912142     2.76411914    14.50005515    -0.08935932     0.41549414     0.47603512
Si    10.04692069     7.18292207    18.99881400     0.01077266    -0.42059684    -0.27881336
Si    10.04324585     7.05733017    13.13022913    -0.21010651    -0.04262832    -0.19172245
Si     9.98243102     1.57457782    18.83717625    -0.10078547    -0.57621306     0.13267675
Si     9.85986472     1.22034417    13.18649117     0.57091618     0.32924420    -0.20253184
Si     4.43238773     7.16700310    18.97650883    -0.94909769     0.10413506     0.13746154
Si     4.36115592     6.93013709    13.17050830     0.08969530     0.47244227     0.08789545
Si     4.46019919     1.49567178    18.88220749    -0.54141265     0.00722258    -0.07729502
Si     4.33311248     4.40994957    21.89382555     0.13603759    -0.32373771    -0.31067920
Si     4.19762641     4.37770562    16.00156694     0.04781979    -0.60892069    -0.04227138
Si     8.61857035     5.64579458    11.52821392    -0.21078593     0.26192009     0.80143547
Si     8.53986416     0.04715611    17.44827510     0.14139825    -0.11829977    -0.03403105
Si     8.57076673    11.29578505    11.58714022    -0.11496779    -0.10500544     0.38339773
Si     2.84572280     5.78467054    17.46026165     0.12347001    -0.17996392     0.17197871
Si     2.89696538     5.63939442    11.75495571    -0.26698899     0.01075169    -0.50413185
Si     2.84167769    11.47790119    17.52866689     0.14738083    -0.14232831    -0.63874257
Si     2.79669327    -0.15694576    11.74117419     0.42072529     0.50297642    -0.56726742
Si    10.13230989    10.10869560    21.83921906    -0.16942047    -0.07973300    -0.00297416
Si     9.99805312     9.83217853    16.09806017    -0.08181184     0.48314124    -0.17102146
Si    10.18140613     4.29237282    21.69837114    -0.28815377     0.21981263     0.62189412