ITEM: TIMESTEP
10
ITEM: NUMBER OF ATOMS
64
ITEM: BOX BOUNDS xy xz yz pp pp pp
-3.1140387182500001e-01 1.1087275714303001e+01 -1.5890782108999999e-02
0.0000000000000000e+00 1.1635512432473000e+01 -2.9551308971599999e-01
0.0000000000000000e+00 1.1127300537966001e+01 2.9068760474299998e-01
ITEM: ATOMS id type x y z fx fy fz
1 1 1.32551 4.18925 1.28671 -0.464213 -1.3411 -0.384242
2 1 1.23513 9.95145 6.78079 -0.491791 0.472226 0.495734
3 1 6.94954 4.17771 1.3282 -0.298354 -1.21422 0.0289647
4 1 6.64044 4.26494 6.76208 0.17133 0.00176832 0.294798
5 1 6.78401 9.81844 1.1972 0.444982 -0.474796 0.124884
6 1 6.7384 9.93014 6.71889 0.0107068 -0.165676 0.739198
7 1 11.0882 11.2874 2.6017 -0.84362 -0.678972 0.0128435
8 1 10.7803 11.3442 8.23025 1.19628 -0.0583573 0.298872
9 1 11.0326 5.50438 2.71325 0.0564766 0.767551 -0.412524
10 1 10.8243 5.57526 8.22764 -0.229992 0.568231 -0.420636
11 1 5.42713 11.2167 2.61394 -0.168689 -0.340072 -0.309118
12 1 5.39997 11.4005 8.164 -0.925223 -0.623583 -0.334456
13 1 5.43515 5.47058 2.61035 -0.100839 0.519623 -0.0849114
14 1 1.13703 4.32977 6.734 0.753673 -0.807565 0.72565
15 1 1.23355 9.70264 1.20787 0.746981 0.252229 0.139394
16 1 5.30364 5.75798 8.2704 -0.405994 -0.668897 -1.19019
17 1 1.30891 7.07575 3.97596 0.00800701 -0.337113 0.581625
18 1 1.03489 7.11754 9.53524 0.961995 0.0271727 0.0664067
19 1 6.71743 1.23531 3.97504 1.22577 0.793679 0.91321
20 1 6.66831 1.50006 9.49769 0.162331 -0.168527 0.927314
21 1 6.71798 7.00857 3.90343 0.715907 0.183544 0.38588
22 1 6.67557 7.11561 9.53074 -0.119033 0.632806 1.48881
23 1 10.7132 2.99539 10.9203 1.32891 -1.03249 1.45401
24 1 10.9629 2.75969 5.38474 0.136113 -0.0121672 0.554635
25 1 10.7083 8.5098 10.9052 0.579353 0.559196 0.109934
26 1 11.0146 8.49044 5.44726 -0.258431 -0.37491 -0.651672
27 1 5.23362 2.85948 10.9111 0.0434899 0.165641 0.599631
28 1 5.3188 2.69945 5.38206 0.0847698 0.455211 -0.0139966
29 1 1.28455 1.32833 4.03705 0.289671 0.439323 -0.477289
30 1 1.195 1.53076 9.62144 -1.12195 -0.0372167 -0.466067
31 1 5.16345 8.53095 11.0273 1.43968 0.49447 -1.29447
32 1 5.4561 8.43005 5.40218 -0.446906 -0.118525 0.115316
33 1 3.94177 4.16893 3.92952 0.599095 -0.211179 1.08119
34 1 3.93864 10.0249 9.62032 -0.587542 0.3212 0.0112546
35 1 9.61475 4.18496 4.08029 -0.691629 -0.156581 -0.117036
36 1 9.36389 4.25919 9.65631 -0.296932 1.08284 -0.866611
37 1 9.64687 9.86649 4.00495 -0.176278 -0.229727 -0.229694
38 1 9.30255 9.98196 9.65615 0.962578 -0.138141 -0.749749
39 1 2.43083 11.4788 11.0741 0.0970985 -0.935268 -0.893974
40 1 2.68234 11.3235 5.36055 -0.768095 -0.913345 0.0618067
41 1 2.46794 5.6723 11.0215 -0.39046 1.30551 -0.734833
42 1 2.69254 5.67732 5.46291 -0.722433 -0.299306 -0.89994
43 1 8.00918 11.4023 10.9663 -0.531192 1.11909 0.604525
44 1 8.21403 11.2045 5.40946 -0.18043 0.799208 -0.468836
45 1 8.03148 5.70825 11.0527 -0.0840374 0.595341 -0.925864
46 1 3.90396 4.37526 9.66451 -0.0189285 -0.50013 -0.781475
47 1 4.10826 9.85337 4.07577 -0.59344 -0.24615 -0.770054
48 1 8.07674 5.63425 5.31371 0.455061 -0.156574 0.62159
49 1 4.11881 6.902 1.1771 -0.643809 -0.526975 0.749916
50 1 3.88325 7.18415 6.81887 1.22101 -0.457906 0.214269
51 1 9.58542 1.34106 1.32895 0.748263 -0.77828 -1.15717
52 1 9.55606 1.37173 6.79504 -0.791181 0.694513 0.195428
53 1 9.71839 6.86908 1.1832 -0.792997 0.330442 1.09036
54 1 9.57344 7.0098 6.69808 -0.133919 -0.255215 0.124317
55 1 2.73599 2.66641 2.5419 -1.24646 0.739663 0.956505
56 1 2.63359 2.90192 8.18714 -0.777493 0.119415 -0.0997373
57 1 2.78508 8.35287 2.59234 -0.593372 0.543773 -0.0136437
58 1 2.57872 8.59019 8.18347 -0.641782 -0.171609 0.775251
59 1 8.28172 2.67345 2.7359 -0.831986 0.490787 -0.058357
60 1 8.06665 2.90056 8.24905 0.210427 -0.356515 -1.45698
61 1 4.03906 1.28218 1.28501 1.10103 -0.352654 -0.844933
62 1 3.85752 1.33503 6.78289 1.2345 1.01418 0.681161
63 1 8.22395 8.42806 2.57211 0.373742 -0.425715 0.017701
64 1 8.01623 8.57324 8.22439 0.0102055 0.0768389 -0.133916
