ITEM: TIMESTEP
170
ITEM: NUMBER OF ATOMS
64
ITEM: BOX BOUNDS xy xz yz pp pp pp
-3.1140387182500001e-01 1.1087275714303001e+01 -1.5890782108999999e-02
0.0000000000000000e+00 1.1635512432473000e+01 -2.9551308971599999e-01
0.0000000000000000e+00 1.1127300537966001e+01 2.9068760474299998e-01
ITEM: ATOMS id type x y z fx fy fz
1 1 1.52578 3.8271 0.994312 0.517492 -0.334425 -0.347874
2 1 1.19573 9.98657 6.77317 0.303272 -0.168942 -0.43471
3 1 7.0859 4.18244 1.54996 -0.26989 1.3286 -0.53856
4 1 6.73322 4.26358 6.90148 0.227199 -0.374171 -0.447924
5 1 6.78466 9.64528 1.24477 -0.152964 0.764621 -0.759641
6 1 6.95114 9.79268 6.74879 -2.14597 1.05601 -0.422874
7 1 -0.10465 11.2373 2.59837 -0.0278145 -0.333345 0.210964
8 1 10.9718 11.327 8.1801 -0.717443 0.00681871 0.0488306
9 1 10.8749 5.85253 2.84764 -0.659435 -0.407308 0.161568
10 1 10.7449 5.80018 8.31077 0.132125 -1.11484 -0.115392
11 1 5.5869 11.2023 2.619 -1.0791 0.0723004 0.124128
12 1 5.41186 11.2906 8.14833 -0.766486 -0.24607 -0.349545
13 1 5.49888 5.56314 2.68615 -0.509792 -0.145062 -0.160586
14 1 1.01642 4.41702 6.75793 0.410852 -0.59435 0.167766
15 1 1.22037 9.64395 1.36965 0.402442 0.648821 -0.905627
16 1 5.35907 5.75942 8.13102 -0.839703 0.0911283 0.177134
17 1 1.18005 7.1987 4.07747 0.295209 -0.280713 0.603233
18 1 1.15239 7.17854 9.55204 -0.676948 0.166301 0.327387
19 1 6.81574 1.37595 4.11452 0.349607 -0.224046 -0.596116
20 1 6.70138 1.38541 9.51471 -0.690033 -0.0311185 0.42714
21 1 6.81316 7.0529 4.08365 -0.466572 -0.476993 -0.382238
22 1 6.67027 7.15236 9.58213 0.315897 -0.630302 0.41884
23 1 10.8712 2.71571 10.8046 -0.850522 0.902433 1.15277
24 1 -0.227798 2.80844 5.41361 0.855639 -0.237268 0.221209
25 1 10.7758 8.61215 10.8931 0.166897 -0.318948 0.663451
26 1 -0.291912 8.56825 5.50682 1.15071 -0.120383 -0.778215
27 1 5.09068 2.76915 10.5742 -0.452917 -0.975246 0.634853
28 1 5.42196 2.79643 5.43656 -0.282792 0.247047 0.216041
29 1 1.23487 1.29022 4.01228 0.567559 0.925806 -0.147638
30 1 1.22139 1.46277 9.42539 -0.22642 -0.641853 0.969034
31 1 5.20143 8.61801 10.7769 -0.39417 -0.466885 1.48324
32 1 5.38718 8.34383 5.44206 0.39371 0.999097 0.263271
33 1 4.00254 4.08577 3.97812 -0.0515238 0.972377 0.057979
34 1 3.72766 10.0273 9.53187 1.4075 -0.0856813 0.0305172
35 1 9.52532 4.29522 4.17654 0.0191509 -0.067934 -0.804717
36 1 9.31364 4.29173 9.78101 1.63716 -0.454446 -1.32785
37 1 9.54762 9.87525 3.94769 -0.24768 0.349064 0.39463
38 1 9.43178 9.95795 9.47738 -0.317386 0.534783 0.809745
39 1 2.32901 11.2731 11.0382 0.489036 0.868163 -0.412125
40 1 2.74328 11.34 5.38595 -0.927125 -0.480348 -0.0588555
41 1 2.49358 5.78397 10.874 0.107515 -0.705416 0.800442
42 1 2.54855 5.69369 5.36368 0.068204 -0.59486 -0.277049
43 1 7.88501 11.3431 10.9685 1.119 -0.120835 0.253427
44 1 8.27213 11.3202 5.42729 -0.392848 0.0167037 0.0105302
45 1 8.14061 5.74011 11.0881 -1.74322 0.695385 0.305296
46 1 3.86355 4.40497 9.44544 -0.146462 -0.206337 -0.139093
47 1 4.11027 9.77456 4.09756 -0.183635 0.884402 -1.07288
48 1 8.11405 5.71176 5.5277 0.0121377 -0.766703 -0.142051
49 1 4.06988 6.92733 1.2046 0.612454 -0.186206 -0.138487
50 1 3.80502 7.19595 6.78571 1.42742 -1.29771 -0.0128124
51 1 9.60303 1.24086 1.23754 0.181726 0.109662 -0.52144
52 1 9.58539 1.39295 6.9564 -0.432819 0.324948 -1.12501
53 1 9.63906 7.01804 1.22723 0.105462 0.0661322 0.0917961
54 1 9.47119 7.12731 6.82459 -0.0337743 -0.00653762 0.419975
55 1 2.81671 2.55884 2.52756 -0.790503 0.396141 0.558409
56 1 2.46472 2.93849 8.04063 0.488172 0.495692 0.170993
57 1 2.70157 8.32251 2.66642 0.281512 0.424069 -0.0169381
58 1 2.52208 8.5489 8.1682 -0.553321 0.303278 -0.0789652
59 1 8.31931 2.74059 2.73685 0.370208 -0.693849 0.441959
60 1 8.10917 2.76851 8.32912 0.092716 1.06735 -0.809489
61 1 4.09137 1.17831 1.11587 0.821509 -0.386955 0.119812
62 1 3.9502 1.4575 6.8315 0.604139 -0.20411 -0.596772
63 1 8.16815 8.38668 2.60844 0.543058 -0.195025 0.280872
64 1 8.08637 8.465 8.16721 0.552579 -0.14192 0.904232
