ITEM: TIMESTEP
200
ITEM: NUMBER OF ATOMS
64
ITEM: BOX BOUNDS xy xz yz pp pp pp
-3.1140387182500001e-01 1.1087275714303001e+01 -1.5890782108999999e-02
0.0000000000000000e+00 1.1635512432473000e+01 -2.9551308971599999e-01
0.0000000000000000e+00 1.1127300537966001e+01 2.9068760474299998e-01
ITEM: ATOMS id type x y z fx fy fz
1 1 1.71927 3.83978 0.9168 -0.561161 -0.624038 0.308214
2 1 1.15378 9.88613 6.61727 0.750808 0.48635 0.785482
3 1 6.92714 4.44548 1.35983 1.30199 -0.656521 -0.275491
4 1 6.76857 4.20852 6.87318 0.524413 0.0353868 -0.311783
5 1 6.77207 9.87901 1.33842 -0.388725 -0.887932 -0.387026
6 1 6.517 9.97152 6.90332 1.20381 -0.522828 -0.154763
7 1 11.0026 11.3374 2.65042 -0.814266 -0.75895 0.246907
8 1 10.8088 11.2759 8.00246 0.97861 -0.0456675 1.10111
9 1 10.7398 5.68081 2.77695 0.62537 1.41044 -0.472411
10 1 -0.0304594 5.65383 8.27504 -2.08278 0.0669023 -0.105709
11 1 5.47255 11.2607 2.67498 -1.16568 -0.676172 -0.100072
12 1 5.14798 11.3962 8.2675 0.479322 -0.408581 -0.509625
13 1 5.49376 5.52115 2.74147 -0.451034 0.937632 0.037609
14 1 1.09211 4.23084 6.73416 0.153055 -0.254418 0.27724
15 1 1.33223 9.95036 1.2309 0.385708 -0.62553 0.296584
16 1 5.35747 5.63022 8.20854 -0.329016 -0.223262 -0.351722
17 1 1.27849 7.03759 3.90606 -0.655691 -0.963699 1.59143
18 1 1.07629 7.12752 9.743 1.45564 -0.123417 -0.898723
19 1 6.76134 1.31499 3.94949 1.32225 1.23167 0.0621877
20 1 6.62241 1.52371 9.49168 0.122407 -0.888185 0.605786
21 1 6.74999 6.97047 4.07447 0.797761 0.931928 0.136325
22 1 6.50208 7.18249 9.55501 1.26356 0.0542549 0.96899
23 1 -0.186903 2.78352 10.905 -0.0808568 0.194588 0.556603
24 1 -0.130477 2.81873 5.26167 -0.836983 -0.482779 1.39781
25 1 0.202601 8.26644 0.018959 -0.863402 0.168962 -0.424033
26 1 -0.157078 8.41932 5.35237 -0.734287 0.0169259 0.0111621
27 1 4.95983 2.56208 10.6848 0.075284 0.333067 0.246954
28 1 5.60036 2.75051 5.35667 -2.04518 0.517737 0.440701
29 1 1.2459 1.43837 3.98826 0.796838 0.354099 -1.26056
30 1 1.11187 1.45357 9.48929 0.44468 -0.99931 -1.06814
31 1 5.45862 8.20178 0.0611968 0.753742 0.980537 -1.17322
32 1 5.37633 8.44701 5.4317 -0.357424 -0.243704 0.230553
33 1 4.04692 4.19293 3.96476 0.358673 -0.898898 1.00713
34 1 3.89623 9.83076 9.61492 -0.234589 0.253301 -0.0546667
35 1 9.58837 4.15705 3.93865 -0.77269 -0.0421186 0.712621
36 1 9.55218 4.24424 9.74092 -0.573138 1.36638 -0.856131
37 1 9.43968 9.96415 4.10825 0.95364 0.0179772 -0.116659
38 1 9.87911 9.57482 9.39754 -1.2305 0.558871 -0.516506
39 1 2.60554 11.4064 10.8782 -1.33419 0.079786 0.393605
40 1 2.5773 11.4323 5.28134 -0.0977239 -1.55757 0.564865
41 1 2.66372 5.67264 10.9383 -0.0936008 1.26446 0.27979
42 1 2.54697 5.45576 5.43304 0.480898 1.37454 -1.34946
43 1 8.00316 0.121642 0.206796 0.293715 -0.059979 -1.35511
44 1 7.9407 11.3457 5.49884 0.997748 -0.0899645 0.139733
45 1 8.0725 5.90248 11.0001 -0.0930471 -0.176249 -0.46976
46 1 3.81977 4.24739 9.47938 0.446235 -0.0510886 -0.409701
47 1 3.99759 9.86868 4.08005 0.142299 0.222328 -0.256572
48 1 8.20153 5.53057 5.37235 -0.107995 0.582767 0.958725
49 1 4.0793 6.93472 1.46468 -0.393829 -0.670745 -1.00423
50 1 3.98813 6.91271 6.69972 -0.485826 0.751215 0.729077
51 1 9.65403 1.35162 1.26189 0.466863 0.0465891 -0.256834
52 1 9.48111 1.43197 6.82706 -0.171859 0.239721 -0.950112
53 1 9.58243 7.15532 1.29431 -0.156771 -0.246537 0.13149
54 1 9.44726 7.14552 6.92035 1.03224 -1.27304 -0.977937
55 1 2.91466 2.67037 2.54163 -1.86457 0.439614 1.15698
56 1 2.56188 2.83976 7.98424 -0.864317 0.0967512 0.802102
57 1 2.64786 8.45459 2.6842 0.285699 0.478551 -0.426214
58 1 2.55098 8.45051 8.1247 -0.19602 -0.354967 0.0511498
59 1 8.29739 2.79386 2.49561 -1.12207 -0.0864654 0.871238
60 1 8.16827 2.85036 8.28813 0.0879509 0.370825 -0.225186
61 1 4.02214 1.20853 1.30293 1.1876 -0.914712 -1.46161
62 1 3.90022 1.41967 6.66555 1.2549 0.21512 0.285562
63 1 8.13363 8.5649 2.71674 0.153352 -0.915477 0.0155108
64 1 8.04748 8.49176 8.18052 -0.417827 0.643536 0.778754
