ITEM: TIMESTEP
410
ITEM: NUMBER OF ATOMS
64
ITEM: BOX BOUNDS xy xz yz pp pp pp
-3.1140387182500001e-01 1.1087275714303001e+01 -1.5890782108999999e-02
0.0000000000000000e+00 1.1635512432473000e+01 -2.9551308971599999e-01
0.0000000000000000e+00 1.1127300537966001e+01 2.9068760474299998e-01
ITEM: ATOMS id type x y z fx fy fz
1 1 2.33813 4.45567 1.5578 0.698161 -2.01955 1.51997
2 1 1.37656 9.99106 6.87863 -1.05965 -0.443386 -1.00356
3 1 6.13387 4.64893 1.74066 1.63168 0.0299434 -1.72961
4 1 6.60187 4.17717 6.78968 -0.389564 -0.133655 -0.60807
5 1 6.77776 9.91084 1.19738 0.0553282 -0.498964 0.683774
6 1 6.96941 9.82527 6.51647 -0.388545 0.152946 1.27663
7 1 10.6909 0.405694 2.74418 0.0924644 0.915093 0.0670809
8 1 10.8341 11.184 8.23477 -0.42081 0.69521 -1.05905
9 1 10.9271 5.92537 3.028 -0.942466 0.213058 0.06321
10 1 10.7909 5.34104 8.28644 0.529716 1.01172 0.756121
11 1 5.39825 11.3143 2.58627 -0.773948 -0.731709 0.269608
12 1 5.32816 11.1144 8.0518 -0.164483 0.034153 0.0266257
13 1 5.47892 5.7322 2.95602 1.46952 3.49777 5.5846
14 1 1.25872 4.22168 6.9064 0.00516405 -0.0290659 0.460537
15 1 1.48247 9.44928 1.22239 0.4434 -0.657924 -0.337472
16 1 5.24402 5.51747 8.20468 1.10822 0.470885 0.39345
17 1 1.24156 7.13154 4.42302 -0.0999296 -2.64421 -0.428104
18 1 0.819477 7.26944 9.25486 -1.37049 0.424374 0.0416443
19 1 6.57087 1.2455 4.21162 -0.14093 0.0441353 0.212825
20 1 6.59762 1.26271 9.37946 1.14573 0.183376 -0.357605
21 1 7.00634 7.28301 4.07237 0.0118189 -0.0493971 0.0629904
22 1 6.62654 7.10715 9.56854 -0.89348 -0.431464 -0.555652
23 1 10.749 2.67265 10.9537 -0.311568 0.792964 -0.698166
24 1 -0.171862 2.96478 5.55295 0.664219 -1.13105 -0.506961
25 1 -0.256257 8.54495 10.9761 -0.524908 -0.783737 -0.270073
26 1 0.614013 8.93222 4.78671 -3.34364 3.03108 2.34063
27 1 5.32131 2.29077 10.7315 0.695452 -1.19679 -0.0267743
28 1 5.20264 2.68461 5.44596 0.566147 0.38082 0.363505
29 1 1.25609 1.56279 4.0695 -0.0406407 0.370455 0.242645
30 1 0.957141 1.25904 9.63723 1.03543 0.153737 -0.0987671
31 1 5.57304 8.98042 10.5248 0.505856 -1.13148 0.893348
32 1 5.472 8.58037 5.29062 0.6025 0.531444 -0.599802
33 1 4.38256 4.11948 1.97479 -6.95326 -3.38151 -0.800252
34 1 3.85073 9.79553 9.43203 -0.855191 0.716808 -0.0284852
35 1 9.59877 4.37919 4.23765 0.0155966 -0.00283318 -0.509562
36 1 9.32579 4.12319 9.68023 0.218365 0.657604 0.42264
37 1 9.58415 10.08 3.88226 0.990481 -0.559836 0.46778
38 1 9.53299 9.57963 9.30344 0.188288 0.0347767 0.700211
39 1 2.3934 11.1364 10.9552 0.162249 -0.0811091 -0.825157
40 1 2.58534 11.3398 5.50195 -0.264294 0.161923 -1.51863
41 1 2.87284 5.52401 0.0894818 1.7933 -1.8544 0.840677
42 1 2.39444 5.61601 5.50526 1.28598 -1.4712 -0.407155
43 1 7.84123 0.296448 0.180546 -0.391385 0.908732 -0.89328
44 1 8.2962 11.43 5.28281 -0.3697 0.0552959 0.922271
45 1 8.08978 5.95806 10.9187 1.66634 0.292029 -0.641686
46 1 4.32481 3.77077 9.31602 -0.869294 -0.196933 -0.326516
47 1 3.9889 9.96037 4.09307 -0.0433523 0.162353 0.223773
48 1 8.09383 5.5809 5.51766 -0.254904 0.498866 -0.188118
49 1 4.15503 5.9991 1.41127 -1.35163 2.30905 -0.729576
50 1 3.57092 6.63113 7.04848 -0.0442732 -0.148045 0.502811
51 1 9.48868 1.67597 1.24642 -0.466342 -0.304861 0.188405
52 1 9.5619 1.47067 6.89435 -0.19506 -0.541733 -0.450125
53 1 9.67781 7.06538 1.39956 -0.158654 0.0398142 -1.41644
54 1 9.48837 6.71468 7.03528 -0.390465 0.211616 -0.59907
55 1 2.95605 2.44988 2.55636 -0.206523 2.91779 -0.835284
56 1 2.51016 2.70859 8.27286 -0.421544 -0.504428 0.211026
57 1 2.07367 8.82231 3.51097 2.79173 0.577234 -2.98115
58 1 2.50257 8.36593 8.09971 0.147346 0.347134 0.722069
59 1 8.49298 3.3223 2.53071 1.57536 -0.905883 0.732182
60 1 8.00848 2.86504 8.15572 0.161718 -1.17778 0.203669
61 1 3.90436 1.06854 1.04488 1.07126 -0.357225 0.39703
62 1 3.86696 1.37498 6.88616 0.679534 0.0872762 -0.122935
63 1 8.30066 8.64565 2.51045 -0.355678 -0.471646 -0.0172169
64 1 8.02413 8.17914 8.09902 0.448242 0.930339 -0.223434
