128
Lattice="12.619 0.000 0.000 0.000 12.663 0.000 0.000 0.000 24.946" Properties=species:S:1:pos:R:3:forces:R:3 energy=-595.17846680 virial="-357.39511108 0.34567785 1.03374720 0.34567785 -361.97277832 -1.31285250 1.03374720 -1.31285250 -342.71063232"
Si     1.47869676     4.69583512     1.52896854     0.29152155     0.23052591    -0.02245679
Si     6.28399463     9.46791066    12.28552507    -0.02712071    -0.01192667     0.48608232
Si     6.25377781     3.15698922    18.57646879    -0.07245091    -0.02682270     0.02565102
Si     6.28164322     3.06707411    12.50668114     0.03771783     0.17240106    -0.01651204
Si     0.07229584     9.50629571    18.81666356    -0.28971100    -0.11268276    -0.31676507
Si     0.03882010     9.54190885    12.42607782    -0.25636244     0.09283971    -0.13217501
Si     0.00385053     3.01113904    18.68423302     0.19290768     0.33487758     0.28118503
Si     0.08440725     3.14445138    12.45162225    -0.35021925     0.09290972    -0.07028556
Si     7.74980384     7.96298978    23.48995808    -0.00705800    -0.21391335    -0.03799826
Si     7.96531711     7.90701222    17.23963273    -0.39257449    -0.12066453    -0.07621560
Si     7.97249125     1.69199109    23.21747941    -0.27404544    -0.38190985     0.54921114
Si     7.87159998     1.50094120    17.04374984     0.06027129     0.27428266     0.21030849
Si     1.63250821     7.89966301    23.47312090    -0.26199013    -0.09602609    -0.02209125
Si     1.55065843     7.91038927    17.10354783    -0.19050768     0.03614886     0.10617582
Si     1.46061716     4.63630455    20.46050748     0.27461955     0.11749619    -0.67598176
Si     1.56782789     1.48562242    23.28701029    -0.01992242     0.29974577     0.37188739
Si     6.22905447     6.29545349    21.88034927    -0.04192837    -0.02257503    -0.22111474
Si     6.22574296     6.31667697    15.62358923     0.12902074     0.10706496    -0.16826418
Si     6.28544183    12.75491428    21.74336994     0.14030412    -0.22993717    -0.12487929
Si     6.30917366    12.60066895    15.45750541    -0.06495722    -0.07771283     0.31644338
Si     0.00520965     6.25773809    21.95439160     0.08319159     0.29815966    -0.09965463
Si    -0.08170247     6.42567926    15.49197706     0.40248117    -0.10104591     0.14773272
Si     0.02563896    12.59038986    21.94518552    -0.14473900    -0.10323744    -0.46737421
Si    -0.03035740    12.70233451    15.71734360     0.20524907    -0.11727148    -0.48928523
Si     7.89778737    11.07075675    20.32735024    -0.17885591     0.17717011    -0.27519614
Si     7.92606383    11.02580266    13.94945601    -0.16973022     0.13174787     0.17416239
Si     7.80837689     4.68405969    20.20422952     0.28476644     0.00421323     0.32000047
Si     7.81758926     4.65692931    14.12341541     0.18106771     0.13249639    -0.07617483
Si     1.60944003    11.06380527    20.34142902    -0.03720364    -0.05659039     0.02655144
Si     1.65270356     1.62295836    17.11886199    -0.38830963    -0.12198659     0.07975952
Si     1.46907559    11.15208068    14.04769672     0.17390749    -0.14556547    -0.01686313
Si     6.26906725     9.47118304    18.69756505     0.23786426    -0.13880813     0.07191463
Si     9.49161395     6.19152205    18.84522815     0.11579506     0.46195009    -0.48165488
Si     9.64135134     3.16459585    21.75884155    -0.45845795     0.03381547     0.00024694
Si     9.50952833     3.14439568    15.63258778    -0.05662464    -0.15193591    -0.15728861
Si     3.14852709     9.39056787    21.86807468    -0.00848378     0.12717083    -0.21424368
Si     3.11519140     9.52569310    15.45667824     0.05430867     0.03457374     0.28481987
Si     3.23091251     3.19062901    21.76856815    -0.41511196    -0.24383198     0.13341297
Si     3.09195131     3.27674375    15.50085119     0.05720339    -0.18134277     0.20111540
Si    11.09132430     7.92119135    20.33869119    -0.13351136    -0.27653852     0.21160111
Si    11.01884785     8.00141946    13.92704686     0.00021465    -0.28545052     0.46785587
Si    11.10797204     1.48918107    20.24888314    -0.09316901     0.16895795     0.07089788
Si    11.14505876     1.58898665    14.03638089    -0.26014239    -0.05495303     0.21155280
Si     4.63153670     7.71849633    20.22609895     0.00221466     0.43907666     0.34728557
Si     4.69057992     7.99047878    13.90623590    -0.07528552    -0.17939864    -0.02108907
Si     4.70186259     1.61534921    20.09064674     0.19042280     0.07292593     0.35467136
Si     4.69549893     4.76708795    23.39334326     0.03368814    -0.19074938     0.07251199
Si     4.57884422     4.82156030    17.07831947     0.16251029    -0.38780689     0.19764398
Si     9.45454990     6.25247864    12.56295884    -0.00245938     0.11405338    -0.44522506
Si     9.44934369    12.68469345    18.71301871     0.09278968    -0.38951591     0.00663143
Si     9.52803422    12.61947444    12.51440146     0.01726997     0.04513038    -0.24635005
Si     2.93522125     6.21796517    18.75921286     0.46301115     0.17345734    -0.17537731
Si     3.09468356     6.45915938    12.32715152     0.28039113    -0.00525146     0.20996945
Si     3.17949967    12.69918766    18.63856330     0.02936824    -0.08960239     0.03743317
Si     2.96231006    12.68172006    12.53722050     0.23079672    -0.20393002    -0.28924307
Si    10.99697769    11.01195616    23.58372221     0.06370737     0.33430392    -0.51585746
Si    11.02781796    11.02638552    17.21583119     0.02889744     0.34349120     0.11064935
Si    11.06264441     4.79112136    23.42095255    -0.25304556    -0.43720001     0.00516916
Si    11.15392650     4.67428474    17.18542383    -0.53256989     0.00320457    -0.05370984
Si     4.67927424    11.05078489    23.29054946    -0.14210564     0.06897287     0.43356732
Si     4.76570394    11.04225413    17.09716204    -0.15394980     0.17193687    -0.19095638
Si     4.59596789     1.48010644    14.04531504     0.25494391     0.39448118    -0.20047265
Si     1.55848452     4.94940436    13.93898561    -0.06041394    -0.44335264    -0.01050035
Si     9.54020261     9.45559856     9.41503434     0.05958390    -0.05784699    -0.08426335
Si     9.45839153     9.59347318     3.03751973    -0.10542552    -0.18291304     0.26930436
Si    -0.00491189     9.52093248     6.25226530     0.41167483    -0.19935000     0.15283372
Si     0.00571487     9.54602787     0.08028028    -0.19339369    -0.21166381     0.00875617
Si    -0.00198262     3.15801809     6.14028769     0.42258790     0.14130178     0.31996214
Si    -0.06669261     3.13296449    -0.01547793     0.20409499    -0.00007441    -0.00676583
Si     7.93944064     7.81065354    10.80824141    -0.15234771     0.19229825     0.17104875
Si     7.83651414     8.04988818     4.74889334     0.23791108    -0.09654386    -0.10134821
Si     7.96578135     1.55853081    10.94212909    -0.17739852    -0.07851569    -0.03386790
Si     8.07886931     1.55682611     4.66904853    -0.49814326     0.36539376    -0.12437096
Si     1.60031994     8.03268010    10.74431883    -0.03798451    -0.28692031     0.41385752
Si     1.57154588     7.96981156     4.81016155     0.06131095    -0.07867948    -0.52830911
Si     1.49753977     1.51992512    10.81602263     0.28290904     0.28203845     0.51703924
Si     1.79632517     1.66646701     4.76532332    -0.42434517    -0.14690524    -0.30770475
Si     6.50503287     3.11932394     6.14261670    -0.34309208     0.20376229     0.48677421
Si     6.34733600     6.29443659     9.20215165     0.16805422     0.03816970     0.28899837
Si     6.32774796    12.69439059     9.42875574     0.08517393    -0.05977350     0.08432707
Si     6.26047954    12.83858157     3.20113649     0.37934452    -0.66745847    -0.22582084
Si     0.07899017     6.23339377     9.40676437     0.03135274     0.18509327    -0.30210078
Si    -0.05113001     6.42055569     3.00434159    -0.07802213     0.03787565     0.24407166
Si    -0.04345452    12.62649831     9.34891793     0.17358974    -0.03798084    -0.23377359
Si     0.03970004    12.72535934     3.28436234     0.09179238    -0.27127576    -0.48787165
Si     7.96326674    11.09172312     7.95178216    -0.15839645     0.09114613    -0.55335218
Si     7.82646062    11.21673207     1.67950728    -0.00814741    -0.05549742    -0.29476643
Si     7.96839464     4.73460511     7.66596192    -0.03637901     0.15256126     0.17637390
Si     7.79803661     4.65412738     1.73037112     0.09771188     0.27585614    -0.38063079
Si     1.62005182    11.11407332     7.78906222    -0.14901613     0.14263953    -0.10924175
Si     1.54280331    11.13147587     1.68057299    -0.05556040    -0.19800919    -0.29330254
Si     1.62317597     4.65725149     7.73776562     0.01083181     0.32305747     0.26940918
Si     6.27443842     6.27461252     3.31878047    -0.03160458     0.15759221    -0.18741974
Si     6.20123745     9.56157264     0.17703950     0.17972404    -0.17795163    -0.33046579
Si     6.28483970     3.10306952    -0.01162920     0.09651896     0.33907580    -0.04069879
Si     6.40865926     9.65342679     6.26096878    -0.20464379    -0.56726593     0.13839184
Si     9.56208048     3.13137855     9.26990383    -0.15613413    -0.00636628     0.14994612
Si     9.42040387     6.54574672     6.27151294     0.37030351    -0.52157050    -0.15085995
Si     9.61561478     3.26522770     3.11009519    -0.45372450    -0.21733391     0.20248836
Si     3.14885210     9.59460422     9.22269551     0.07147235    -0.27231756     0.44190216
Si     3.13296032     9.45795993     3.20129132     0.07156454     0.08273537     0.23636281
Si     3.24289661     3.20671945     9.34855458    -0.16541108    -0.22720459    -0.12825036
Si     3.28440194     3.20077841     3.03780353    -0.38151023    -0.09151365     0.38893607
Si    11.25119470     7.81148852     7.85797048    -0.77115440     0.54855978    -0.18184188
Si    10.89244835     7.94395007     1.42983906     0.25080013     0.09524578     0.50946397
Si    11.09450837     1.52306825     7.67282080    -0.14298312     0.07503597     0.22572483
Si    11.06864449     1.54309743     1.60908824    -0.04779714     0.38096958    -0.07407774
Si     4.85576015     7.96196333     7.73158724    -0.30642968     0.04636148    -0.03447270
Si     4.70182929     7.82842677     1.74668085    -0.13109100     0.19438381    -0.22161630
Si     4.86878399     1.64601447     7.88583536     0.02024032    -0.14072829    -0.34347579
Si     4.73043900     1.57259957     1.47694787    -0.02108813     0.14808148     0.22071314
Si     9.19907834     6.30672387     0.08132951     0.59452903     0.20306261    -0.13405620
Si     4.73230673     4.71790166     4.79135386     0.30699155     0.05281112    -0.50336349
Si     9.47245358    12.61567249     6.17785678     0.40165466    -0.04437086     0.25097975
Si     9.39716883    12.71918285     0.02404312     0.26700324    -0.14722620     0.14890814
Si     3.16735888     6.33775660     6.25539594     0.08658330    -0.02478290     0.09344944
Si     3.10741615     6.29340682     0.06388628     0.07595816     0.00196444    -0.05902705
Si     3.33300500    12.74620892     6.30451134    -0.30159500    -0.22298437    -0.00090203
Si     3.00241626    12.58606190    -0.12331463     0.46193716     0.09871601     0.28065723
Si    11.04480213    11.05574902    10.91436662     0.11380824     0.05016002     0.12184471
Si    11.10111135    11.00884821     4.61140955    -0.24649152     0.40625691     0.29899526
Si    11.04683060     4.67166061    10.97518860     0.23733073     0.06597392    -0.16443199
Si    11.01827345     5.06130342     4.61123904    -0.05933669    -0.71573019    -0.03186359
Si     4.56323462    11.07612479    10.97000572     0.36254802     0.12657562    -0.39591831
Si     4.77252531    11.01990977     4.71199392     0.04323082     0.64922929     0.09970124
Si     4.77279658     4.77654016    10.90536969    -0.16014864    -0.04595936    -0.23138240
Si     9.44178528     9.50424395    15.67255477     0.19559748    -0.03443952    -0.36197937
Si     9.41814697     9.47684266    21.89366907     0.11366978     0.04312253     0.21952821
128
Lattice="9.882 0.000 0.000 0.000 9.756 0.000 0.000 0.000 20.459" Properties=species:S:1:pos:R:3:forces:R:3 energy=-610.03271484 virial="503.33056641 -10.73833942 0.90417027 -10.73833942 497.11557007 25.32553482 0.90417027 25.32553482 503.67810059"
Si     1.13087955     3.72628121     1.34033939    -0.17382021    -0.73863906    -0.26687032
Si     4.92296645     7.24724354    10.00560095    -1.37261152     1.97420406     0.93457693
Si     4.85753409     2.44691333    14.99544980     2.44408202    -1.03519702     2.23560333
Si     4.92381810     2.53305303    10.12394145     0.42335165    -0.13504919     0.44701898
Si    -0.19866248     7.17122151    15.47119181     0.03539028     0.21852204     2.09284663
Si    -0.10411419     7.28220984    10.18883371    -0.30087689    -0.76714247    -0.65001768
Si    -0.01242267     2.34082983    15.41274252    -0.43658125     0.46346584    -0.35818058
Si    -0.20620089     2.42162414    10.26204924     0.57827401     0.77134216    -0.43381450
Si     5.71016120     6.02609507    19.32525764     1.32574105    -0.00280438     0.48890302
Si     6.15922871     5.91260630    14.06094814    -1.35628211     1.64205766    -0.32993853
Si     6.12556007     1.10630742    19.27677266     0.41983056    -0.70284283    -2.09392786
Si     6.21984363     1.02733218    13.97317199    -0.85713565     0.54386514     0.28908160
Si     1.15635587     6.07594247    19.47480886     1.23778510     0.00386141     0.25795114
Si     1.06433461     6.17470665    14.12074532     0.53546852     0.86170340    -0.82563829
Si     1.21887043     3.67814235    16.61069340    -0.13404319    -0.06401642     1.89702535
Si     1.11251602     1.18000783    19.28035366     0.91709441    -4.84492016    -1.49544764
Si     4.78074697     4.81346480    17.87517940    -0.34606415    -2.08096433    -0.77425003
Si     4.82803646     4.96250595    12.66196362    -0.87876070    -1.65900064     0.29105857
Si     4.92583186     9.74194662    17.80122269    -0.33649629    -0.98017520     1.35818434
Si     4.86380278     9.69157129    12.70092672    -0.48477805     0.67285597    -1.26094961
Si    -0.02501076     4.84642532    18.15654266     0.18097231    -2.66278172     0.25662449
Si     0.07539263     4.87338919    12.77494474    -1.46480703    -1.75911927    -0.06418844
Si    -0.03327315     9.58445006    17.73072360     1.29963768    -0.03598606     3.19993830
Si    -0.00092927     9.70960658    12.74833272    -0.91634512    -0.24871114     0.90711057
Si     6.08183430     8.37659606    16.55726255     0.70403904    -0.62111366     2.54894996
Si     6.11643166     8.48708253    11.35283067     1.41636944    -0.31539196     0.65160978
Si     6.16458715     3.56529688    16.60180579    -0.32175562     1.05366778    -1.77838397
Si     6.14972535     3.54199696    11.56137587     0.05386698     1.98493934    -0.46980762
Si     1.32576506     8.36703858    16.62909402     0.02881973     0.79556751    -2.84291816
Si     1.14964329     1.17882640    13.99215564     0.76327825     0.53536695     1.26356125
Si     1.08817076     8.45367060    11.52991972     1.50539279     0.01828534    -2.11155128
Si     4.84185053     7.16262247    15.40170046    -0.25977176    -0.95460773    -2.21775866
Si     7.61176984     5.06170280    15.29043317    -0.42836213    -1.62180758     1.65033174
Si     7.37973884     2.23015321    17.81467266    -1.51556444    -0.49755716    -0.03993908
Si     7.40343979     2.30809120    12.74058553    -1.08704972     0.87038118     1.10169542
Si     2.38361717     7.13633827    17.95306095    -0.16543446     0.03561800     3.01353216
Si     2.35319203     7.26659837    12.74348654    -0.57564789    -0.64048600     0.70391762
Si     2.36060823     2.19606275    17.92866958    -0.61099344     1.50401080    -1.39769495
Si     2.19828461     2.45105194    12.60278809     0.73180401     0.55118924    -1.21436751
Si     8.56408555     6.00437102    16.93785775    -0.73850030     1.22632837     0.70848596
Si     8.54988732     5.97362392    11.47439197     0.21206568    -0.50189698    -0.40838909
Si     8.60958053     1.01474191    16.58510472    -0.31092072     1.12304831    -1.27448332
Si     8.65360188     1.18559526    11.58343407     0.99436015    -0.36305583     0.50447917
Si     3.50888073     6.01626773    16.61016971     0.78407478    -0.85811949    -0.28208113
Si     3.63046865     6.25210184    11.38953915     0.30165040    -0.50667810     0.08681813
Si     3.75575795     1.30829721    16.57592754     0.00428234    -0.11971111    -1.97046590
Si     3.61341749     3.40473680    19.21545117    -1.28647339     2.15197372    -1.26929736
Si     3.46264218     3.61603499    14.01485729    -0.24557501     1.02636993    -3.08664703
Si     7.41123561     4.72047624    10.05010053    -0.02598719    -1.06744826     1.95557320
Si     7.29523042     9.60745864    15.37817995     0.32323515     0.38390541    -0.37342602
Si     7.59848370     9.78794688    10.23898266    -0.73998851    -2.69196820     0.55009598
Si     2.33089887     4.91697051    15.23183996    -0.18125290    -0.36506215     0.52883083
Si     2.61788646     4.99527893     9.95390155    -0.27711892    -0.00768803     1.03519511
Si     2.52531784     9.71878683    15.19094882    -0.17316014     0.20207731     1.66114438
Si     2.37851969     9.61289906    10.09988539     0.02123943     0.08357719     1.18718958
Si     8.51952063     8.64356686    19.25871818     0.64353997    -0.66257071    -0.36303532
Si     8.74967397     8.57816240    14.19677235    -0.81342530    -0.27612117    -1.51013780
Si     8.42764356     3.35103851    19.26317008    -0.11711404     3.29990816     1.16520381
Si     8.51167051     3.52899423    14.08929940     2.10601902     0.44707724    -0.34791303
Si     3.64686267     8.44509905    19.22164642    -0.16411790     1.19864082    -3.18118286
Si     3.69992838     8.38262918    13.95535173     0.72457218    -0.28233552     0.87057555
Si     3.67220479     1.28356570    11.32506632    -1.23216462    -1.19661832     1.05992103
Si     1.16250078     3.84223618    11.15639746     0.68377757     0.14996381     0.44263169
Si     7.42795410     7.27453963     7.73240623     0.21243763     0.29617256     1.45589364
Si     7.29678009     7.64632780     2.56041821    -1.45241010     1.23926425     1.30496597
Si     0.24715511     7.27345956     5.22123614    -0.55012393    -0.53894162    -1.77880800
Si    -0.18955210     7.29967719     0.19239654    -0.84172583     0.65240121    -1.35940719
Si     0.37336070     2.56591979     5.19289085    -1.05548930     1.20876026    -2.62890625
Si     0.05788503     2.41981136     0.00996484    -0.99299765     2.27510977     1.42662585
Si     6.16701698     6.01580720     8.94428244     1.14968371    -0.40909639    -1.02748537
Si     6.31227251     6.24585159     3.98536107    -0.87222087     0.15564637    -1.09284258
Si     6.28345414     1.20816761     9.14458832     0.28458995     1.95076370     0.01685123
Si     6.26316505     1.30258902     3.83330701     0.03139187    -1.55088735     2.96804380
Si     1.17891757     6.08829771     8.81358289    -0.92685866     0.76425421     0.80526817
Si     1.30414643     5.96293849     3.76851039    -0.26119089     1.22779775    -0.25351614
Si     1.14056830     1.29974140     9.02219771     1.59456253     0.69775444    -1.78096247
Si     1.34314368     1.17811209     3.79003728    -0.27169791     0.03065704     1.84007716
Si     5.15180760     2.47703647     5.30030393     0.93479043     1.54383492    -1.13628030
Si     5.14906768     4.76858300     7.56577941    -1.33427453     1.34566927    -1.14298737
Si     5.21984384     9.80828530     7.80168084     0.88740206     0.67308426    -1.21142888
Si     5.08637398     9.85382272     2.55978561     0.08933464    -0.12603185    -0.78249574
Si     0.05114612     4.83437099     7.51790248    -1.52904081     2.52713394    -0.52813435
Si    -0.06895151     5.11568242     2.35657389     0.34633967    -0.99800205     1.78141594
Si     0.07303036     9.82284237     7.52558836     0.68795276     0.60932559     1.28783035
Si     0.17694548     9.76411939     2.50775116    -2.14489865    -0.82103974    -0.94988710
Si     6.32236124     8.58571629     6.48691345     0.80192971     0.44442743    -0.15508106
Si     6.00512742     8.62576786     1.09241608     1.61086273     0.62854183     0.95718050
Si     6.54047619     3.77354581     6.35613755     0.62227106    -0.70966268    -0.61147749
Si     6.00425148     3.70585922     1.33783521     0.73527926     0.30098027     1.61967325
Si     1.35093652     8.76743059     6.23036810    -0.28126529    -2.72683644     2.13769007
Si     1.30404156     8.35114870     1.29486084     0.27462173    -0.82925045     1.09518552
Si     1.47081555     3.77950443     6.55159483     0.93967795    -0.26941097    -0.71505058
Si     4.93127399     5.03140382     2.65257455     0.41145676    -0.14700437     1.96710122
Si     4.70331627     7.35950510     0.17397017    -0.20894131    -1.15919328    -0.52364981
Si     5.05353212     2.50611240    -0.05927978    -1.04357553    -1.58326364     1.51800323
Si     5.02653674     7.51462178     5.23659225    -0.54704058    -0.58749676    -1.36439085
Si     7.46372236     2.35335356     7.69193787    -0.03862993    -1.15366864    -0.08821149
Si     7.69750579     4.96655878     5.02216687    -1.52476716     1.92269897     1.63531578
Si     7.35117879     2.55332422     2.61684829    -0.71713960     0.47357577    -2.56088114
Si     2.44028533     7.43464065     7.71377577     0.23370849    -0.39218086    -2.32948923
Si     2.57436730     7.57824202     2.93545357    -0.71648324    -0.62399477    -0.35049003
Si     2.71311964     2.37984542     7.43122239    -1.23932934    -2.06254792     2.60974789
Si     2.38988910     2.55111714     2.62190853     0.92688876     0.73010683    -0.86960542
Si     8.67767279     6.21791218     6.40608165     0.95589566     0.03097244     0.28754929
Si     8.34250224     6.22804590     1.45214487    -0.83684444     0.37901586    -0.67995489
Si     8.86304459     1.36589961     6.26926707    -1.87803769     0.56974238    -0.28204632
Si     8.68458133     1.41358922     1.39787978     0.82029927    -0.97424430     1.08515358
Si     3.81898848     6.11953629     6.32693507    -1.14492691    -0.37995028     1.54486942
Si     3.57926061     6.21392058     1.49460869    -2.06637359    -0.38380751     1.13117504
Si     4.05449312     1.12869388     6.40089007     0.54520488    -1.13402271     0.85057080
Si     3.72712236     1.30287804     1.40993533    -0.22756591     0.56050950    -1.73278546
Si     7.20776391     5.02347594     0.15500849     0.72454631    -1.52481437    -2.91535378
Si     3.81273568     3.52770367     3.92252787     1.37873840     0.21006295    -0.76562560
Si     7.56246839     9.73630925     5.16606577    -0.58844090     1.42595220    -0.50213504
Si     7.43630029     9.91120323     0.19299539     0.97612751    -0.19475245     0.16676010
Si     2.53137912     4.81134500     5.06644365     1.18413007     0.76332217     0.22174086
Si     2.56573576     4.77720190     0.17599852     0.82547599     0.45397186    -1.20412683
Si     2.60216299     9.97408181     5.24437331     0.06587818     2.44836187    -1.47798109
Si     2.49618123     9.63723435     0.11649292     0.15229277     2.75942826    -0.41491681
Si     8.74911593     8.65627128     8.82439738    -0.40800831    -1.15536714     0.06056139
Si     8.78064384     8.53114260     3.88842435     1.65225029    -0.52857852    -0.32862383
Si     8.78847065     3.67259554     8.76722527    -0.91060519    -0.93654859     0.93148971
Si     8.59829414     3.77877309     3.69479298     5.53125286    -1.64857507    -0.57095528
Si     3.82239374     8.67600250     8.76374751    -1.26676798    -1.06820500     1.73981786
Si     3.88378097     8.90361435     4.01070402     0.76532006    -1.00498986     0.04074997
Si     3.79824670     3.68460889     8.77497323    -0.89627874    -0.32467961    -0.67372310
Si     7.46535268     7.24123131    12.85333170    -0.78938425     1.65015316     0.14753053
Si     7.16799839     7.22137794    18.17975040     0.13970877     0.47140467    -0.49810398
128
Lattice="12.114 0.000 0.000 0.000 11.914 0.000 0.000 0.000 25.113" Properties=species:S:1:pos:R:3:forces:R:3 energy=-623.35546875 virial="-315.01617432 0.06414074 0.79714179 0.06414074 -295.58132935 -0.83858424 0.79714179 -0.83858424 -362.22601318"
Si     1.46288221     4.57190637     1.59973506     0.09599108    -0.17783175    -0.02810125
Si     6.04037366     8.97700862    12.40100185     0.14345349    -0.23517445     0.31075102
Si     6.07350854     2.97632988    18.60260158    -0.40751672    -0.30081773     0.30840996
Si     6.03254744     3.08100688    12.50338332     0.12404451    -0.35555786    -0.01901782
Si    -0.24113129     8.80016398    19.06287389     0.57595289     0.26196793    -0.42955935
Si    -0.15347972     8.82561312    12.48194225     0.52695906     0.16289532    -0.02572848
Si    -0.06003705     2.93968456    18.88124928     0.00504023    -0.21500722    -0.16543964
Si    -0.09472512     3.02754662    12.49870728     0.51703763    -0.01434147    -0.29517114
Si     7.14382421     7.31719800    23.68503302     0.61300784     0.20658553    -0.14424109
Si     7.51296944     7.34873380    17.20285719     0.08911240     0.20403892     0.07888696
Si     7.51310918     1.30946317    23.57988321    -0.00454493     0.52425897    -0.07692580
Si     7.48929239     1.29620686    17.17654484     0.00428959     0.39978319     0.02007793
Si     1.43242324     7.34715112    23.88085387    -0.15959166    -0.02216341    -0.64264381
Si     1.27014654     7.47913366    17.30780368     0.32517371    -0.49845886    -0.06864175
Si     1.43318287     4.46058293    20.48892485    -0.26577324    -0.33609807    -0.14550477
Si     1.41461704     1.23345591    23.60848640     0.17787518     0.65279603    -0.13743269
Si     5.83585552     5.72883297    21.89406766     0.04391649     0.33921945     0.22925565
Si     5.92750957     5.94120334    15.53365654     0.09193783     0.12230060     0.19088423
Si     5.99494888    11.80289513    21.92104164    -0.03558164    -0.05296227     0.10339287
Si     5.94743243    11.84478757    15.51208831     0.23238410    -0.15149984     0.30326545
Si    -0.05871956     5.79245631    22.28114831    -0.33506626     0.33095449    -0.17844629
Si    -0.02378092     5.83112890    15.68777398    -0.26103729     0.45136464    -0.23082942
Si    -0.00565766    11.70267982    21.91355092    -0.26689172     0.23181477     0.16665792
Si     0.01037692    11.80605055    15.70653750    -0.21095201     0.10948772     0.04617768
Si     7.44371028    10.16998310    20.47134621    -0.05930220     0.38338596    -0.13344917
Si     7.59811792    10.34593783    14.05058041    -0.15874402     0.16802382    -0.00560211
Si     7.51740645     4.38526717    20.27542348     0.00069249    -0.02627978     0.13055384
Si     7.52785597     4.47861863    14.10528562    -0.13540058    -0.31823188    -0.15164568
Si     1.56652074    10.23406718    20.32626492    -0.54458725     0.12542926     0.57352179
Si     1.46487791     1.46423942    17.22956203    -0.03883128    -0.12012005    -0.18361169
Si     1.43295124    10.28893341    14.00923277    -0.03673828     0.29375291     0.27026829
Si     5.93372643     8.72314308    18.79296700     0.08593047     0.22012538     0.16732484
Si     9.22467065     6.04187444    18.82962857    -0.80553997    -0.68040967     0.17174871
Si     8.89001688     2.73498778    21.89934867     0.37477195     0.38521767     0.17212351
Si     8.98790250     2.89903020    15.72530389     0.26195091    -0.05882809    -0.11929425
Si     2.89289737     8.76648020    22.14491295     0.20693573     0.24229106    -0.43937662
Si     2.87270271     8.88151529    15.68730529     0.18763378     0.02952555    -0.19341780
Si     2.85450333     2.78463955    21.92544240     0.44174898     0.26335362     0.17739215
Si     2.76161015     2.96356108    15.36235187     0.67040795     0.08899248     0.51489592
Si    10.43649216     7.35589000    20.87314846     0.25925231     0.06145487    -0.76221740
Si    10.48914062     7.27438603    14.09088845     0.22577983     0.24268109     0.02952600
Si    10.52764820     1.30047575    20.34094327    -0.06861041     0.07812877     0.21179178
Si    10.60526373     1.42522808    14.20878314    -0.05724074     0.03000120    -0.22267580
Si     4.34241082     7.30324537    20.42664373     0.15623558    -0.05450555    -0.11806387
Si     4.46372307     7.54083727    14.00749489     0.14252782    -0.33943298    -0.09723716
Si     4.58727048     1.50288327    20.27663887    -0.30183953    -0.42098129     0.09590384
Si     4.38046973     4.26842810    23.51703755     0.28952074     0.20574000     0.06199844
Si     4.30911567     4.42938111    17.02261111     0.32538953     0.14483276     0.11405282
Si     9.08336480     5.75770159    12.46864980    -0.08994913     0.59013110     0.05701416
Si     8.95744086    11.70126308    18.84135444     0.16494444     0.19642466    -0.05240426
Si     9.21642245    11.79728484    12.60549425    -0.20468500     0.52335334    -0.00969075
Si     2.83159207     5.96265542    18.75685731     0.01578678    -0.19037461     0.22865129
Si     3.10878349     6.04905531    12.28818328    -0.46723664    -0.13557431     0.22047611
Si     3.08612677    11.83960849    18.73944778    -0.14966556    -0.03065056     0.00882513
Si     2.97687104    11.85679782    12.43951114     0.09592576     0.24079889    -0.01985754
Si    10.45790826    10.47771085    23.60453015     0.12810415    -0.39082003     0.26132470
Si    10.57386205    10.34152817    17.33437082    -0.29263452    -0.19614807    -0.04121479
Si    10.31582250     4.32020719    23.68815410     0.63511175     0.21599394    -0.21970399