6
Lattice="2.60900 0.00000 0.00000 1.36600 2.28800 0.00000 0.12900 -0.31300 13.10800" Properties=species:S:1:pos:R:3:force:R:3 pbc="T T T" energy=-5408.548763065648 virial="0.9659 0.8169 -2.1351 0.8169 0.8914 2.2680 -2.1351 2.2680 0.7474"
Au     2.13122455     0.20455939     4.36035985     0.29638365    -0.42379588    -0.14180997
Au     1.03543484     0.83812630     2.02092097    -0.70536762     0.13231433     9.66745838
Au     2.31988807     1.95526155    10.63681217    -0.63959686    -0.81158932     8.30656975
Au     2.18466512    -0.04852529     8.59926315     0.98757903     1.46260724     3.07545835
Au     0.90983303     0.80355531     6.68119862    -0.30399844    -0.48604696    -9.21293782
Au     2.26298554     0.05174958     0.10921314     0.36285440     0.12813438   -11.68833077
6
Lattice="2.60900 0.00000 0.00000 1.36600 2.28800 0.00000 0.12900 -0.31300 13.10800" Properties=species:S:1:pos:R:3:force:R:3 pbc="T T T" energy=-5408.516963314572 virial="0.9668 0.8086 -2.0907 0.8086 0.8920 2.3071 -2.0907 2.3071 0.7489"
Au     2.13198399     0.20436419     4.35980311     0.29430934    -0.42164130    -0.13666770
Au     1.03471083     0.83873273     2.02030289    -0.70576646     0.12702152     9.75783292
Au     2.31778230     1.95546380    10.63541508    -0.61250442    -0.81446621     8.39322155
Au     2.18610525    -0.04941318     8.60023628     0.95769982     1.47274630     2.97196563
Au     0.91104005     0.80365589     6.68122831    -0.30241717    -0.49330842    -9.18756545
Au     2.26240869     0.05192345     0.11078239     0.36635838     0.13139295   -11.79241374
6
Lattice="2.60900 0.00000 0.00000 1.36600 2.28800 0.00000 0.12900 -0.31300 13.10800" Properties=species:S:1:pos:R:3:force:R:3 pbc="T T T" energy=-5408.5036818381195 virial="0.9673 0.8042 -2.0379 0.8042 0.8922 2.3139 -2.0379 2.3139 0.7496"
Au     2.13278340     0.20414149     4.35922101     0.29303960    -0.42018542    -0.13117355
Au     1.03392753     0.83936571     2.02015017    -0.70395747     0.12209266     9.80253538
Au     2.31557582     1.95563222    10.63438941    -0.58152002    -0.81650530     8.46811594
Au     2.18764108    -0.05025733     8.60138986     0.92330751     1.47957419     2.84977527
Au     0.91227225     0.80373525     6.68080142    -0.29990900    -0.49779635    -9.13186945
Au     2.26183084     0.05210967     0.11181667     0.36652818     0.13468303   -11.85101551
6
Lattice="2.60900 0.00000 0.00000 1.36600 2.28800 0.00000 0.12900 -0.31300 13.10800" Properties=species:S:1:pos:R:3:force:R:3 pbc="T T T" energy=-5408.509749152215 virial="0.9674 0.8039 -1.9776 0.8039 0.8918 2.2883 -1.9776 2.2883 0.7494"
Au     2.13360866     0.20389488     4.35862414     0.29260771    -0.41946572    -0.12535979
Au     1.03309834     0.84001374     2.02047887    -0.69989783     0.11767085     9.79904497
Au     2.31330921     1.95576277    10.63376689    -0.54720044    -0.81763730     8.52925619
Au     2.18924436    -0.05104052     8.60270048     0.88506349     1.48286479     2.71171994
Au     0.91350721     0.80379119     6.67991793    -0.29656136    -0.49935644    -9.04681380
Au     2.26126285     0.05230518     0.11228102     0.36327359     0.13789718   -11.86144389
6
Lattice="2.60900 0.00000 0.00000 1.36600 2.28800 0.00000 0.12900 -0.31300 13.10800" Properties=species:S:1:pos:R:3:force:R:3 pbc="T T T" energy=-5408.535181570082 virial="0.9670 0.8075 -1.9103 0.8075 0.8910 2.2314 -1.9103 2.2314 0.7484"
Au     2.13445331     0.20362616     4.35801748     0.29302092    -0.41948863    -0.11921171
Au     1.03222972     0.84067148     2.02129105    -0.69362445     0.11384240     9.74682407
Au     2.31100195     1.95585393    10.63355968    -0.50988505    -0.81782569     8.57565056
Au     2.19090086    -0.05175560     8.60415229     0.84340851     1.48256345     2.55993062
Au     0.91473510     0.80382293     6.67858457    -0.29246709    -0.49797739    -8.93361842
Au     2.26070926     0.05250865     0.11216539     0.35661748     0.14095912   -11.82310101
6
Lattice="2.60900 0.00000 0.00000 1.36600 2.28800 0.00000 0.12900 -0.31300 13.10800" Properties=species:S:1:pos:R:3:force:R:3 pbc="T T T" energy=-5408.579754478076 virial="0.9662 0.8149 -1.8364 0.8149 0.8896 2.1450 -1.8364 2.1450 0.7465"
Au     2.13531924     0.20333463     4.35740003     0.29427975    -0.42025238    -0.11265593
Au     1.03131993     0.84134016     2.02258921    -0.68519554     0.11065264     9.64586789
Au     2.30865086     1.95590561    10.63377257    -0.46959798    -0.81705179     8.60691186
Au     2.19261230    -0.05240358     8.60574181     0.79844689     1.47869013     2.39533727
Au     0.91595859     0.80383044     6.67680098    -0.28769928    -0.49370090    -8.79286297
Au     2.26016871     0.05272071     0.11146731     0.34660992     0.14382091   -11.73604337
6
Lattice="2.60900 0.00000 0.00000 1.36600 2.28800 0.00000 0.12900 -0.31300 13.10800" Properties=species:S:1:pos:R:3:force:R:3 pbc="T T T" energy=-5408.641705890111 virial="0.9650 0.8257 -1.7578 0.8257 0.8877 2.0335 -1.7578 2.0335 0.7439"
Au     2.13618636     0.20302708     4.35678646     0.29634404    -0.42172673    -0.10579441
Au     1.03039061     0.84200410     2.02433665    -0.67493871     0.10821223     9.49964820
Au     2.30631255     1.95591679    10.63440066    -0.42743112    -0.81533223     8.62196252
Au     2.19433663    -0.05296985     8.60742370     0.75148356     1.47143267     2.22324366
Au     0.91714955     0.80381383     6.67461694    -0.28247061    -0.48676028    -8.62906002
Au     2.25965319     0.05293655     0.11020925     0.33361502     0.14637643   -11.60341816
6
Lattice="2.60900 0.00000 0.00000 1.36600 2.28800 0.00000 0.12900 -0.31300 13.10800" Properties=species:S:1:pos:R:3:force:R:3 pbc="T T T" energy=-5408.720925986482 virial="0.9633 0.8395 -1.6743 0.8395 0.8854 1.8985 -1.6743 1.8985 0.7405"
Au     2.13706776     0.20269896     4.35616787     0.29923450    -0.42391877    -0.09848571
Au     1.02942848     0.84267316     2.02654890    -0.66289590     0.10651936     9.30777581
Au     2.30395393     1.95588803    10.63545088    -0.38294286    -0.81264867     8.62073943
Au     2.19609732    -0.05346391     8.60921404     0.70212058     1.46083524     2.04267338
Au     0.91832637     0.80377338     6.67201083    -0.27677912    -0.47714820    -8.44112928
Au     2.25915415     0.05315950     0.10838320     0.31763081     0.14862390   -11.42500356
6
Lattice="2.60900 0.00000 0.00000 1.36600 2.28800 0.00000 0.12900 -0.31300 13.10800" Properties=species:S:1:pos:R:3:force:R:3 pbc="T T T" energy=-5408.816377722305 virial="0.9613 0.8561 -1.5863 0.8561 0.8827 1.7429 -1.5863 1.7429 0.7364"
Au     2.13796484     0.20234969     4.35554374     0.30294778    -0.42682241    -0.09067417
Au     1.02843276     0.84334820     2.02921989    -0.64925410     0.10560109     9.07186118
Au     2.30157384     1.95581940    10.63692483    -0.33624172    -0.80900016     8.60282884
Au     2.19789443    -0.05388692     8.61110655     0.65059632     1.44703096     1.85499939
Au     0.91949096     0.80370950     6.66898801    -0.27069764    -0.46495338    -8.23014381
Au     2.25867011     0.05339000     0.10599508     0.29882326     0.15054386   -11.20237373
6
Lattice="2.60900 0.00000 0.00000 1.36600 2.28800 0.00000 0.12900 -0.31300 13.10800" Properties=species:S:1:pos:R:3:force:R:3 pbc="T T T" energy=-5408.927098394193 virial="0.9589 0.8751 -1.4943 0.8751 0.8795 1.5700 -1.4943 1.5700 0.7316"
Au     2.13888126     0.20197771     4.35491205     0.30749152    -0.43043781    -0.08229016
Au     1.02740019     0.84403180     2.03234968    -0.63420145     0.10548559     8.79322168
Au     2.29916539     1.95571071    10.63882858    -0.28733222    -0.80438095     8.56769816
Au     2.19973244    -0.05424099     8.61309957     0.59696937     1.43003694     1.66098050
Au     0.92064806     0.80362247     6.66554599    -0.26433185    -0.45035327    -7.99678565
Au     2.25819834     0.05362903     0.10304496     0.27732959     0.15211026   -10.93678330
6
Lattice="2.60900 0.00000 0.00000 1.36600 2.28800 0.00000 0.12900 -0.31300 13.10800" Properties=species:S:1:pos:R:3:force:R:3 pbc="T T T" energy=-5409.053238143677 virial="0.9561 0.8962 -1.3978 0.8962 0.8759 1.3809 -1.3978 1.3809 0.7261"
Au     2.13983078     0.20157719     4.35426396     0.31293508    -0.43481475    -0.07317160
Au     1.02631610     0.84473395     2.03597553    -0.61779244     0.10620055     8.47010698
Au     2.29669569     1.95556011    10.64119331    -0.23567212    -0.79874253     8.51422520
Au     2.20163587    -0.05453123     8.61521367     0.54084585     1.40984654     1.45961991
Au     0.92181468     0.80351147     6.66164120    -0.25769073    -0.43329975    -7.73902091
Au     2.25773107     0.05388025     0.09949625     0.25306214     0.15332349   -10.62650591
6
Lattice="2.60900 0.00000 0.00000 1.36600 2.28800 0.00000 0.12900 -0.31300 13.10800" Properties=species:S:1:pos:R:3:force:R:3 pbc="T T T" energy=-5409.193811227493 virial="0.9530 0.9190 -1.2975 0.9190 0.8720 1.1788 -1.2975 1.1788 0.7199"
Au     2.14081890     0.20114536     4.35359649     0.31931416    -0.43997559    -0.06322101
Au     1.02517502     0.84545844     2.04010946    -0.60023816     0.10778984     8.10332763
Au     2.29415429     1.95536624    10.64403764    -0.18116621    -0.79206700     8.44134175
Au     2.20361237    -0.05475862     8.61745151     0.48230328     1.38653019     1.25165380
Au     0.92299688     0.80337628     6.65725779    -0.25086233    -0.41388295    -7.45687856
Au     2.25726499     0.05414518     0.09533441     0.22611567     0.15416416   -10.27215774
6
Lattice="2.60900 0.00000 0.00000 1.36600 2.28800 0.00000 0.12900 -0.31300 13.10800" Properties=species:S:1:pos:R:3:force:R:3 pbc="T T T" energy=-5409.341439746944 virial="0.9497 0.9421 -1.1984 0.9421 0.8678 0.9754 -1.1984 0.9754 0.7134"
Au     2.14180697     0.20069896     4.35293646     0.32637025    -0.44569994    -0.05281505
Au     1.02402275     0.84617676     2.04457210    -0.58251575     0.11018090     7.71060092
Au     2.29164411     1.95513693    10.64724743    -0.12618020    -0.78465741     8.35144101
Au     2.20558118    -0.05491505     8.61971495     0.42403787     1.36123325     1.04700204
Au     0.92414826     0.80322311     6.65258103    -0.24423014    -0.39307384    -7.16307302
Au     2.25681724     0.05441343     0.09073890     0.19777985     0.15461143    -9.89062742
6
Lattice="2.60900 0.00000 0.00000 1.36600 2.28800 0.00000 0.12900 -0.31300 13.10800" Properties=species:S:1:pos:R:3:force:R:3 pbc="T T T" energy=-5409.49677791812 virial="0.9463 0.9654 -1.0999 0.9654 0.8635 0.7720 -1.0999 0.7720 0.7065"
Au     2.14281232     0.20023013     4.35227298     0.33420999    -0.45206110    -0.04177920
Au     1.02284043     0.84690141     2.04941846    -0.56459546     0.11340160     7.28881542
Au     2.28912450     1.95486887    10.65087074    -0.06997259    -0.77642804     8.24268885
Au     2.20757333    -0.05500496     8.62203263     0.36541861     1.33375409     0.84373841
Au     0.92528917     0.80305047     6.64754709    -0.23776946    -0.37072849    -6.85419855
Au     2.25637861     0.05468961     0.08565264     0.16779562     0.15468538    -9.47856160
6
Lattice="2.60900 0.00000 0.00000 1.36600 2.28800 0.00000 0.12900 -0.31300 13.10800" Properties=species:S:1:pos:R:3:force:R:3 pbc="T T T" energy=-5409.656601766195 virial="0.9426 0.9883 -1.0039 0.9883 0.8590 0.5736 -1.0039 0.5736 0.6993"
Au     2.14382685     0.19974257     4.35161218     0.34273502    -0.45898448    -0.03021112
Au     1.02163894     0.84762645     2.05458622    -0.54688278     0.11738627     6.84518451
Au     2.28661935     1.95456480    10.65487067    -0.01320590    -0.76750260     8.11562452
Au     2.20956917    -0.05502913     8.62437505     0.30732534     1.30457040     0.64508145
Au     0.92641037     0.80286097     6.64221432    -0.23162377    -0.34724958    -6.53439701
Au     2.25595128     0.05497138     0.08013980     0.13659436     0.15442671    -9.04249502
6
Lattice="2.60900 0.00000 0.00000 1.36600 2.28800 0.00000 0.12900 -0.31300 13.10800" Properties=species:S:1:pos:R:3:force:R:3 pbc="T T T" energy=-5409.821745276546 virial="0.9389 1.0107 -0.9100 1.0107 0.8544 3.8141 -0.9100 3.8141 0.6919"
Au     2.14486889     0.19922729     4.35094296     0.35208768    -0.46656859    -0.01793332
Au     1.02039792     0.84836487     2.06014525    -0.52931769     0.12218049     6.37560775
Au     2.28408728     1.95421976    10.65931219     0.04489394    -0.75776804     7.96762692
Au     2.21160109    -0.05498930     8.62677380     0.24910811     1.27340477     0.44900780
Au     0.92753192     0.80265237     6.63650384    -0.22575545    -0.32244275    -6.19949479
Au     2.25552619     0.05526371     0.07412387     0.10380985     0.15386063    -8.57780713
6
Lattice="2.60900 0.00000 0.00000 1.36600 2.28800 0.00000 0.12900 -0.31300 13.10800" Properties=species:S:1:pos:R:3:force:R:3 pbc="T T T" energy=-5409.986215781344 virial="0.9351 1.0317 -0.8218 1.0317 0.8498 2.0367 -0.8218 2.0367 0.6845"
Au     2.14591306     0.19869673     4.35028249     0.36201067    -0.47459772    -0.00528758
Au     1.01914903     0.84909861     2.06593432    -0.51255566     0.12761646     5.89539930
Au     2.28159384     1.95384283    10.66407726     0.10275559    -0.74753313     7.80199560
Au     2.21361586    -0.05488813     8.62915986     0.19255580     1.24126171     0.26167359
Au     0.92862635     0.80243110     6.63057407    -0.22039332    -0.29711787    -5.85918115
Au     2.25511227     0.05555931     0.06777737     0.07037139     0.15305499    -8.09889201
6
Lattice="2.60900 0.00000 0.00000 1.36600 2.28800 0.00000 0.12900 -0.31300 13.10800" Properties=species:S:1:pos:R:3:force:R:3 pbc="T T T" energy=-5410.150804971316 virial="0.9313 1.0512 -0.7389 1.0512 0.8451 4.0788 -0.7389 4.0788 0.6770"
Au     2.14697597     0.19814241     4.34962114     0.37262321    -0.48316380     0.00785939
Au     1.01787382     0.84983930     2.07201784    -0.49651003     0.13370568     5.40064511
Au     2.27910306     1.95342890    10.66922925     0.16110992    -0.73672797     7.61590447
Au     2.21564200    -0.05472602     8.63156102     0.13713347     1.20787962     0.08130108
Au     0.92971102     0.80219505     6.62435149    -0.21550951    -0.27105973    -5.50947457
Au     2.25470141     0.05586269     0.06102790     0.03576580     0.15190995    -7.60127607
6
Lattice="2.60900 0.00000 0.00000 1.36600 2.28800 0.00000 0.12900 -0.31300 13.10800" Properties=species:S:1:pos:R:3:force:R:3 pbc="T T T" energy=-5410.313172463361 virial="0.9276 1.0689 -0.6628 1.0689 0.8405 -1.0399 -0.6628 -1.0399 0.6696"
Au     2.14805465     0.19756573     4.34896170     0.38385945    -0.49220144     0.02140173
Au     1.01657726     0.85058482     2.07835155    -0.48138189     0.14036889     4.89643405
Au     2.27662591     1.95297988    10.67474197     0.21967883    -0.72547833     7.40961679
Au     2.21767016    -0.05450519     8.63396061     0.08334251     1.17357573    -0.09050650
Au     0.93078265     0.80194629     6.61787371    -0.21106581    -0.24438953    -5.15288512
Au     2.25429325     0.05617281     0.05392210     0.00022545     0.15071373    -7.08906122
6
Lattice="2.60900 0.00000 0.00000 1.36600 2.28800 0.00000 0.12900 -0.31300 13.10800" Properties=species:S:1:pos:R:3:force:R:3 pbc="T T T" energy=-5410.471465562249 virial="0.9239 1.0847 -0.5949 1.0847 0.8360 -2.2592 -0.5949 -2.2592 0.6623"
Au     2.14914856     0.19696688     4.34830548     0.39564571    -0.50167392     0.03523991
Au     1.01526143     0.85133476     2.08490392    -0.46728049     0.14753811     4.38646149
Au     2.27416765     1.95249686    10.68059895     0.27830107    -0.71384794     7.18322415
Au     2.21969574    -0.05422768     8.63634788     0.03152018     1.13860726    -0.25278552
Au     0.93184043     0.80168639     6.61116521    -0.20722237    -0.21749171    -4.79095397
Au     2.25388643     0.05648928     0.04649296    -0.03626445     0.14946297    -6.56534773
6
Lattice="2.60900 0.00000 0.00000 1.36600 2.28800 0.00000 0.12900 -0.31300 13.10800" Properties=species:S:1:pos:R:3:force:R:3 pbc="T T T" energy=-5410.624013282203 virial="0.9203 1.0981 -0.5360 1.0981 0.8317 -3.2284 -0.5360 -3.2284 0.6553"
Au     2.15025717     0.19634604     4.34765376     0.40798389    -0.51152994     0.04921532
Au     1.01392833     0.85208873     2.09164290    -0.45435905     0.15509896     3.87408782
Au     2.27173342     1.95198099    10.68678221     0.33691553    -0.70195107     6.93657231
Au     2.22171427    -0.05389570     8.63871268    -0.01803264     1.10319115    -0.40452124
Au     0.93288359     0.80141696     6.60425098    -0.20402348    -0.19047217    -4.42516942
Au     2.25347957     0.05681171     0.03877441    -0.07372439     0.14824658    -6.03295970
6
Lattice="2.60900 0.00000 0.00000 1.36600 2.28800 0.00000 0.12900 -0.31300 13.10800" Properties=species:S:1:pos:R:3:force:R:3 pbc="T T T" energy=-5410.7698651350265 virial="0.9169 1.1093 -4.8706 1.1093 0.8274 -3.9265 -4.8706 -3.9265 0.6486"
Au     2.15138482     0.19570068     4.34700501     0.42084425    -0.52174167     0.06329656
Au     1.01257412     0.85284965     2.09856584    -0.44260059     0.16298003     3.36023428
Au     2.26931777     1.95143119    10.69329985     0.39574050    -0.68985291     6.66881595
Au     2.22373019    -0.05350999     8.64105565    -0.06527067     1.06739258    -0.54576838
Au     0.93391587     0.80113844     6.59712596    -0.20145790    -0.16336285    -4.05555521
Au     2.25306945     0.05714113     0.03076703    -0.11240655     0.14715002    -5.49225150
6
Lattice="2.60900 0.00000 0.00000 1.36600 2.28800 0.00000 0.12900 -0.31300 13.10800" Properties=species:S:1:pos:R:3:force:R:3 pbc="T T T" energy=-5410.908494988614 virial="0.9136 1.1180 -4.4893 1.1180 0.8234 -4.3378 -4.4893 -4.3378 0.6423"
Au     2.15253972     0.19502592     4.34635557     0.43426830    -0.53237214     0.07738610
Au     1.01119026     0.85362302     2.10569429    -0.43197522     0.17118441     2.84407198
Au     2.26690744     1.95084429    10.70018318     0.45523746    -0.67758227     6.37797078
Au     2.22575467    -0.05306958     8.64338549    -0.11027375     1.03116003    -0.67697391
Au     0.93494429     0.80085026     6.58976009    -0.19953450    -0.13610525    -3.68085778
Au     2.25265141     0.05747969     0.02244306    -0.15275334     0.14625676    -4.94153472
6
Lattice="2.60900 0.00000 0.00000 1.36600 2.28800 0.00000 0.12900 -0.31300 13.10800" Properties=species:S:1:pos:R:3:force:R:3 pbc="T T T" energy=-5411.037218137901 virial="0.9106 1.1243 -4.2305 1.1243 0.8195 -4.4305 -4.2305 -4.4305 0.6364"
Au     2.15371131     0.19432779     4.34571248     0.44807839    -0.54325459     0.09121350
Au     1.00979073     0.85440171     2.11293374    -0.42259817     0.17951854     2.33289700
Au     2.26452886     1.95022658    10.70735124     0.51493928    -0.66536819     6.06676867
Au     2.22776580    -0.05258049     8.64567307    -0.15242858     0.99501509    -0.79653747
Au     0.93595890     0.80055657     6.58224325    -0.19827916    -0.10907590    -3.30588020
Au     2.25222755     0.05782408     0.01391026    -0.19459470     0.14567815    -4.38768976
6
Lattice="2.60900 0.00000 0.00000 1.36600 2.28800 0.00000 0.12900 -0.31300 13.10800" Properties=species:S:1:pos:R:3:force:R:3 pbc="T T T" energy=-5411.154590216238 virial="0.9078 1.1279 -4.1025 1.1279 0.8159 -4.1952 -4.1025 -4.1952 0.6310"
Au     2.15489576     0.19360852     4.34507878     0.46215600    -0.55431183     0.10454612
Au     1.00838133     0.85518318     2.12023137    -0.41446034     0.18784682     1.83048943
Au     2.26219369     1.94958114    10.71476024     0.57480644    -0.65336351     5.73652795
Au     2.22975404    -0.05204661     8.64790420    -0.19147733     0.95922479    -0.90396427
Au     0.93695604     0.80025980     6.57462288    -0.19769990    -0.08244316    -2.93301370
Au     2.25179744     0.05817293     0.00522894    -0.23803587     0.14552624    -3.83374401
6
Lattice="2.60900 0.00000 0.00000 1.36600 2.28800 0.00000 0.12900 -0.31300 13.10800" Properties=species:S:1:pos:R:3:force:R:3 pbc="T T T" energy=-5411.260210269327 virial="0.9052 1.1290 -4.1116 1.1290 0.8126 -3.6086 -4.1116 -3.6086 0.6263"
Au     2.15609774     0.19286522     4.34445290     0.47647676    -0.56551441     0.11722073
Au     1.00695769     0.85597050     2.12758735    -0.40745391     0.19614341     1.33682341
Au     2.25989658     1.94890652    10.72241804     0.63527373    -0.64164211     5.38622013
Au     2.23172443    -0.05146812     8.65008161    -0.22752976     0.92378648    -0.99975184
Au     0.93793926     0.79996028     6.56689165    -0.19775863    -0.05619071    -2.56177283
Au     2.25135754     0.05852740    -0.00360273    -0.28352788     0.14585639    -3.27823934
6
Lattice="2.60900 0.00000 0.00000 1.36600 2.28800 0.00000 0.12900 -0.31300 13.10800" Properties=species:S:1:pos:R:3:force:R:3 pbc="T T T" energy=-5411.353775026294 virial="0.9030 1.1277 -4.2672 1.1277 0.8095 -2.6717 -4.2672 -2.6717 0.6221"
Au     2.15732461     0.19209326     4.34383196     0.49106270    -0.57685998     0.12908084
Au     1.00551227     0.85676843     2.13501817    -0.40150807     0.20430470     0.85088564
Au     2.25762770     1.94819959    10.73034955     0.69695725    -0.63025092     5.01377035
Au     2.23368616    -0.05084361     8.65221279    -0.26071402     0.88862095    -1.08456152
Au     0.93891403     0.79965762     6.55902505    -0.19846504    -0.03025000    -2.19076545
Au     2.25090319     0.05888948    -0.01260629    -0.33164513     0.14682779    -2.71824285
6
Lattice="2.60900 0.00000 0.00000 1.36600 2.28800 0.00000 0.12900 -0.31300 13.10800" Properties=species:S:1:pos:R:3:force:R:3 pbc="T T T" energy=-5411.4341288496 virial="0.9011 1.1240 -4.5749 1.1240 0.8067 -1.3636 -4.5749 -1.3636 0.6186"
Au     2.15857215     0.19129518     4.34321904     0.50577127    -0.58828286     0.13991036
Au     1.00405114     0.85757418     2.14247038    -0.39655015     0.21223067     0.37617647
Au     2.25539909     1.94746376    10.73850473     0.75992747    -0.61936789     4.62034862
Au     2.23562980    -0.05017734     8.65428510    -0.29087424     0.85398610    -1.15831448
Au     0.93987644     0.79935431     6.55107271    -0.19979344    -0.00475201    -1.82200576
Au     2.25043384     0.05925774    -0.02171829    -0.38257463     0.14852795    -2.15583410
6
Lattice="2.60900 0.00000 0.00000 1.36600 2.28800 0.00000 0.12900 -0.31300 13.10800" Properties=species:S:1:pos:R:3:force:R:3 pbc="T T T" energy=-5411.500500829855 virial="0.8995 1.1179 -0.5040 1.1179 0.8042 3.1772 -0.5040 3.1772 0.6159"
Au     2.15983720     0.19047298     4.34261648     0.52048868    -0.59968195     0.14943349
Au     1.00257909     0.85838565     2.14989791    -0.39249447     0.21980960    -0.08461465
Au     2.25322047     1.94670192    10.74683849     0.82441968    -0.60913885     4.20688768
Au     2.23754800    -0.04947320     8.65628886    -0.31797541     0.82007837    -1.22118266
Au     0.94082353     0.79905251     6.54307731    -0.20171263     0.02016697    -1.45694748
Au     2.24994853     0.05963114    -0.03088296    -0.43659491     0.15105480    -1.59249481
6
Lattice="2.60900 0.00000 0.00000 1.36600 2.28800 0.00000 0.12900 -0.31300 13.10800" Properties=species:S:1:pos:R:3:force:R:3 pbc="T T T" energy=-5411.552849412554 virial="0.8983 1.1096 -0.5671 1.1096 0.8019 2.3853 -0.5671 2.3853 0.6138"
Au     2.16112889     0.18962064     4.34202071     0.53521747    -0.61108659     0.15749597
Au     1.00108647     0.85920862     2.15732802    -0.38919555     0.22701547    -0.53362259
Au     2.25108029     1.94590955    10.75538595     0.89121919    -0.59958059     3.77018035
Au     2.23945235    -0.04872823     8.65823459    -0.34225403     0.78672258    -1.27400125
Au     0.94176159     0.79875143     6.53500328    -0.20418468     0.04466555    -1.09339301
Au     2.24944137     0.06001228    -0.04013397    -0.49444343     0.15449845    -1.02417200
6
Lattice="2.60900 0.00000 0.00000 1.36600 2.28800 0.00000 0.12900 -0.31300 13.10800" Properties=species:S:1:pos:R:3:force:R:3 pbc="T T T" energy=-5411.59038566621 virial="0.8975 1.0992 -0.6465 1.0992 0.8000 4.8379 -0.6465 4.8379 0.6126"
Au     2.16243739     0.18874463     4.34143692     0.54974620    -0.62234014     0.16380387
Au     0.99958562     0.86003673     2.16467847    -0.38657028     0.23371184    -0.96639449
Au     2.24899905     1.94509362    10.76405575     0.96024527    -0.59089924     3.31351818
Au     2.24132626    -0.04795024     8.66010410    -0.36356519     0.75430369    -1.31695008
Au     0.94268292     0.79845471     6.52693413    -0.20719110     0.06847254    -0.73472887
Au     2.24891375     0.06039821    -0.04936821    -0.55608122     0.15893422    -0.45516150
6
Lattice="2.60900 0.00000 0.00000 1.36600 2.28800 0.00000 0.12900 -0.31300 13.10800" Properties=species:S:1:pos:R:3:force:R:3 pbc="T T T" energy=-5411.613169779683 virial="0.8970 1.0868 -0.7434 1.0868 0.7983 0.7692 -0.7434 0.7692 0.6121"
Au     2.16377332     0.18783780     4.34086094     0.56408809    -0.63347143     0.16818767
Au     0.99806527     0.86087660     2.17198434    -0.38447629     0.23988986    -1.38587097
Au     2.24696407     1.94424844    10.77289116     1.03246552    -0.58312427     2.83332351
Au     2.24318306    -0.04713500     8.66190979    -0.38209671     0.72259337    -1.35089483
Au     0.94359444     0.79816122     6.51882595    -0.21069244     0.09175971    -0.37859050
Au     2.24835867     0.06079207    -0.05862823    -0.62238935     0.16447028     0.11922086
6
Lattice="2.60900 0.00000 0.00000 1.36600 2.28800 0.00000 0.12900 -0.31300 13.10800" Properties=species:S:1:pos:R:3:force:R:3 pbc="T T T" energy=-5411.620910904095 virial="0.8969 1.0726 -0.8571 1.0726 0.7970 1.0941 -0.8571 1.0941 0.6124"
Au     2.16513086     0.18690405     4.34029574     0.57807407    -0.64437182     0.17042475
Au     0.99653290     0.86172446     2.17918991    -0.38283085     0.24548374    -1.78982077
Au     2.24498862     1.94337852    10.78182568     1.10793977    -0.57641569     2.33209804
Au     2.24501291    -0.04628807     8.66364140    -0.39801886     0.69184212    -1.37636531
Au     0.94449160     0.79787353     6.51073540    -0.21463405     0.11439609    -0.02722340
Au     2.24777566     0.06119221    -0.06784116    -0.69341511     0.17117072     0.69671114
6
Lattice="2.60900 0.00000 0.00000 1.36600 2.28800 0.00000 0.12900 -0.31300 13.10800" Properties=species:S:1:pos:R:3:force:R:3 pbc="T T T" energy=-5411.613579779046 virial="0.8973 1.0567 -0.9886 1.0567 0.7959 1.4597 -0.9886 1.4597 0.6135"
Au     2.16651729     0.18593833     4.33973866     0.59166262    -0.65503980     0.17032262
Au     0.99498114     0.86258470     2.18631079    -0.38134606     0.25037683    -2.18027443
Au     2.24306664     1.94248000    10.79087819     1.18746344    -0.57084295     1.80786228
Au     2.24682402    -0.04540690     8.66530630    -0.41149850     0.66193470    -1.39414317
Au     0.94537862     0.79759133     6.50264015    -0.21898400     0.13647753     0.32057416
Au     2.24715842     0.06160091    -0.07702379    -0.76983639     0.17917291     1.28085898
6
Lattice="2.60900 0.00000 0.00000 1.36600 2.28800 0.00000 0.12900 -0.31300 13.10800" Properties=species:S:1:pos:R:3:force:R:3 pbc="T T T" energy=-5411.591247379987 virial="0.8980 1.0394 -1.1369 1.0394 0.7951 1.8647 -1.1369 1.8647 0.6153"
Au     2.16792627     0.18494505     4.33919247     0.60467261    -0.66536418     0.16769694
Au     0.99341787     0.86345322     2.19329239    -0.38002695     0.25456006    -2.55535798
Au     2.24121152     1.94155771    10.79997745     1.27100554    -0.56651847     1.26413269
Au     2.24860670    -0.04449742     8.66689541    -0.42260488     0.63306808    -1.40482406
Au     0.94625086     0.79731709     6.49459777    -0.22367040     0.15786264     0.66242680
Au     2.24650640     0.06201648    -0.08610161    -0.85169287     0.18836014     1.86970648
6
Lattice="2.60900 0.00000 0.00000 1.36600 2.28800 0.00000 0.12900 -0.31300 13.10800" Properties=species:S:1:pos:R:3:force:R:3 pbc="T T T" energy=-5411.553997218658 virial="0.8991 1.0207 -1.3026 1.0207 0.7946 2.3108 -1.3026 2.3108 0.6180"
Au     2.16936491     0.18391913     4.33865447     0.61705073    -0.67532858     0.16236512
Au     0.99183593     0.86433424     2.20014905    -0.37873096     0.25804555    -2.91698644
Au     2.23941860     1.94060764    10.80913895     1.35925088    -0.56352093     0.69936476
Au     2.25036874    -0.04355690     8.66841576    -0.43152887     0.60514011    -1.40916973
Au     0.94711218     0.79705057     6.48658756    -0.22866602     0.17863707     0.99952739
Au     2.24581263     0.06244130    -0.09508816    -0.93948977     0.19891691     2.46677810
6
Lattice="2.60900 0.00000 0.00000 1.36600 2.28800 0.00000 0.12900 -0.31300 13.10800" Properties=species:S:1:pos:R:3:force:R:3 pbc="T T T" energy=-5411.501831738638 virial="0.9006 1.0010 -1.4857 1.0010 0.7943 2.7992 -1.4857 2.7992 0.6214"
Au     2.17083869     0.18285662     4.33812262     0.62871947    -0.68490697     0.15414449
Au     0.99023007     0.86523089     2.20688569    -0.37733870     0.26078902    -3.26643738
Au     2.23768634     1.93962671    10.81836564     1.45275971    -0.56194212     0.11262723
Au     2.25211554    -0.04258352     8.66987209    -0.43843940     0.57812194    -1.40787798
Au     0.94796517     0.79679192     6.47859940    -0.23392852     0.19884312     1.33262178
Au     2.24507043     0.06287731    -0.10398396    -1.03370213     0.21093841     3.07490582
6
Lattice="2.60900 0.00000 0.00000 1.36600 2.28800 0.00000 0.12900 -0.31300 13.10800" Properties=species:S:1:pos:R:3:force:R:3 pbc="T T T" energy=-5411.435792553609 virial="0.9025 0.9806 -1.6834 0.9806 0.7943 3.3234 -1.6834 3.3234 0.6255"
Au     2.17233125     0.18176925     4.33760258     0.63941922    -0.69392482     0.14301234
Au     0.98861875     0.86613304     2.21340867    -0.37571897     0.26275733    -3.59976187