48
Lattice="10.91300 0.00000 -0.00000 2.67800 4.76500 0.00000 0.17400 0.45700 13.94600" Properties=species:S:1:pos:R:3:force:R:3 pbc="T T T" energy=-43779.852218386564 virial="33.6627 -5.2765 -19.0310 -5.2765 34.6986 11.7592 -19.0310 11.7592 33.2632"
Ag     4.32891784     4.47280974    11.49987733     7.84491173    -3.64457101    -9.74179340
Ag    10.55249760     3.46807257     1.85904848     1.03424635    -0.61640981     3.86894796
Ag     6.20780260     5.16000759    13.54129839    -1.48956108     0.18253486     2.23844345
Ag    10.74912796     1.96209416     4.36883478    -0.28441882     1.27287746     0.19421422
Au    12.09956547     2.78027521     6.81670466     2.55148108    -1.81196862    -3.33528632
Au     7.09447007     4.25619533    11.21905951     0.02709050     3.04414872    -2.36144836
Au     5.29874159     4.93209047     6.90265840     0.34052021     0.52738345    -0.03610929
Au     6.46647344     3.76854676     4.12929809     2.58105480     1.39322258     1.72824369
Au     7.87365205     0.28662061     6.79830651     2.73289214     1.69607955    -1.30905076
Au     3.08302934     3.57630460     9.09297833    -0.40993236     0.24283353    -2.42934574
Au     6.14993247     0.57150850    13.65866053     0.85290820     0.49983755    -2.78441741
Au     2.36602523     1.38004861     4.64782993    -1.19979744     3.03668522    -0.81213340
Au     5.14940997     3.46981163     2.03409618    -0.49388416     0.80163075    -0.05088626
Au    11.54320598     5.03297159    13.71576843    -0.86953076     0.87384498    -2.25224294
Au    11.12942742     3.54893117     8.96436521    -0.43734609    -2.23122417     2.54887786
Au     9.66006997     2.10188723     0.07376971     1.10816210     0.81392083    -4.21778976
Au     9.89897567     3.99273471    11.72155831    -0.35415862    -0.39618778    -1.22262291
Au     9.17586131     4.29688244     3.94905903     0.11580979    -1.39763077     2.14380690
Au     6.98724708     0.89502086     9.18994963    -0.59248375     2.97315002     0.18268954
Au    11.29491490     1.79933136    10.99432565    -0.29122808     2.94439374     2.90135300
Au    12.09073683     4.29295891     4.52176442     0.04828690    -4.52095729     0.13592886
Au     8.71097762     1.43584613    11.25731471    -3.50264972     3.42690640     2.34942285
Au    12.73381931     4.14710435    11.22203542    -2.47877135    -1.29233166     1.35846454
Au     9.76875816     0.93313296     8.90623378     0.87333449     2.83371364     0.00245800
Au    10.63409922     0.46644990     6.62656880     2.65376256    -0.72868702    -0.84989078
Au     4.26282935     2.55520894     6.63000750    -7.06119694    -1.31609877     2.88310178
Au     9.34492426     0.79322850     2.20437977    -2.71600604     2.37332955     1.19675493
Au     0.82713305     1.07646243     2.03936615     4.42201454     0.94639914    -0.31957515
Au     5.51648157     3.24622762     9.12331377     3.81971021     2.38314253    -2.27640063
Au     7.91823223     3.68924956     1.73741040    -1.82887510    -0.89451426     2.10895993
Au     8.10463399     1.59192836     4.36673058    -2.29110838     4.72024493     0.78698740
Au     2.44100659     3.47851792     2.23194480    -0.21250490    -2.55205118    -0.71873453
Au     3.27459155     2.18596207    11.82771487    -0.63401177    -3.82121424    -4.30218954
Au     5.71864812     1.99154102    11.27817527     1.95400551    -2.70113933     1.59884191
Au     4.29816067     0.93130457     8.97731447     1.03881226    -1.47552330    -0.42024783
Au     9.28501875     2.83345203     6.82090710     0.93629030    -4.90097145    -1.02052061
Au     8.03097575     4.88324469     6.42369439    -3.29356020     2.25307396    -0.51973508
Au     6.89199539     1.26357791     1.86828628    -2.68257992     1.10877372     0.55903677
Au     8.60480292     3.29911719     9.34068025    -3.33496793    -0.58798563    -0.82948061
Au     1.79414147     1.32763597     9.02114113    -0.72708817    -2.04228685    -0.22224434
Au     7.34532120     2.95124077    13.26174151     2.03006621    -3.34013227     2.16670838
Au     6.63339279     2.57287764     6.49286599     4.56448733     0.13913020     1.00780843
Au     3.80301990     3.96315747     4.54959424    -2.23188357     1.33964980    -0.78009911
Au     4.76825976     2.77869263    13.89464367    -0.96990968     0.74941166    -2.03496019
Au     3.42972551     1.18772824     1.98133291     1.10887532    -2.39081818     0.08364732
Au     4.81012410     1.67283881     4.14335925     3.71832732    -2.52708421    -0.80122978
Au     1.76812516     2.83225159    13.65777606    -0.09439600     0.44888591     3.04077919
Au     0.87679969     0.47824601    13.38167389    -5.87704898     2.16221963    10.58829698
48
Lattice="10.91300 0.00000 -0.00000 2.67800 4.76500 0.00000 0.17400 0.45700 13.94600" Properties=species:S:1:pos:R:3:force:R:3 pbc="T T T" energy=-43779.867992695166 virial="33.6716 -5.2110 -18.9847 -5.2110 34.6995 11.7374 -18.9847 11.7374 33.2480"
Ag     4.33174424     4.47114487    11.49902453     7.76416483    -3.53082402    -9.61877572
Ag    10.55347849     3.46737543     1.85848585     0.99455015    -0.59295296     3.92754566
Ag     6.20720949     5.15894370    13.53987525    -1.48735831     0.19201375     2.25941744
Ag    10.75229185     1.95986878     4.36995898    -0.32681325     1.29762560     0.17041283
Au    12.10183492     2.77932876     6.81692755     2.51188415    -1.78590429    -3.29406899
Au     7.09527060     4.25541335    11.22055701     0.02679550     3.08495256    -2.46827894
Au     5.29883853     4.93126313     6.90362526     0.34580922     0.55080514    -0.02906992
Au     6.46489635     3.76720704     4.12846283     2.59643339     1.40939542     1.74508266
Au     7.87248676     0.28770506     6.79719646     2.71718565     1.60933401    -1.30256639
Au     3.08286865     3.57857486     9.09216191    -0.44432281     0.20716162    -2.44736377
Au     6.14954696     0.57336056    13.65781071     0.85822737     0.45624344    -2.73987787
Au     2.36691343     1.37969898     4.64922422    -1.18475882     3.01516185    -0.81121182
Au     5.14949155     3.47020714     2.03271126    -0.53396265     0.77727620    -0.05112249
Au    11.54245206     5.03267672    13.71674425    -0.84952619     0.91816930    -2.27773815
Au    11.12934406     3.55087768     8.96446430    -0.44508688    -2.32183374     2.51054226
Au     9.66241121     2.10254459     0.07399722     1.04718498     0.75283320    -4.21349720
Au     9.89894788     3.99100426    11.72279445    -0.34769364    -0.36976550    -1.22988884
Au     9.17556938     4.29727242     3.94952960     0.13407171    -1.41046881     2.11652516
Au     6.98796748     0.89507098     9.18970349    -0.62204922     2.97923637     0.18006973
Au    11.29422558     1.80038145    10.99494142    -0.26765059     2.89258409     2.89222448
Au    12.09148949     4.29266310     4.52412612    -0.01251934    -4.48995596     0.09356925
Au     8.70967161     1.43590199    11.25686886    -3.48056209     3.37717706     2.37742519
Au    12.73551725     4.14705310    11.22140346    -2.49655126    -1.25218517     1.37512342
Au     9.76567002     0.93285864     8.90639805     0.94166865     2.87633626    -0.01768999
Au    10.63302092     0.46729945     6.62580475     2.67126912    -0.72258074    -0.78853664
Au     4.26442971     2.55627531     6.63155523    -7.13145615    -1.32038996     2.84656561
Au     9.34553401     0.79149283     2.20494351    -2.77013205     2.43948436     1.19920312
Au     0.82771493     1.07650376     2.03937204     4.39794454     0.95132884    -0.32682315
Au     5.51473261     3.24597279     9.12393597     3.87106122     2.41407373    -2.26774838
Au     7.91679863     3.68922069     1.73700008    -1.76545523    -0.86366210     2.08138280
Au     8.10454628     1.59345641     4.36778936    -2.23504160     4.66879876     0.74570959
Au     2.44028934     3.47908571     2.23306602    -0.16171183    -2.63135010    -0.73251628
Au     3.27699639     2.18711128    11.82896787    -0.65336937    -3.84661742    -4.34054334
Au     5.71916242     1.99034544    11.27735533     1.97069409    -2.70951945     1.59460322
Au     4.30042431     0.93202732     8.97651318     0.95596506    -1.51191582    -0.40029023
Au     9.28368815     2.83202252     6.82104355     0.94922982    -4.80341748    -1.02429287
Au     8.02899360     4.88419298     6.42313055    -3.25283261     2.18112480    -0.51334539
Au     6.89146339     1.26559313     1.86888074    -2.65682197     1.05481863     0.55551462
Au     8.60481891     3.29870086     9.34058192    -3.33690898    -0.55730004    -0.82560095
Au     1.79249165     1.32746599     9.02126493    -0.66430110    -2.01736497    -0.21327546
Au     7.34565276     2.95124854    13.25993164     2.07179417    -3.37909986     2.24698364
Au     6.63298776     2.57159383     6.49222228     4.60257606     0.17600709     1.00304442
Au     3.80240157     3.96259276     4.54907795    -2.20583682     1.33250688    -0.76205337
Au     4.76861430     2.77792822    13.89445533    -0.98298997     0.76394700    -1.99855163
Au     3.42792680     1.18571158     1.98121442     1.13553245    -2.31710952     0.07109494
Au     4.80997731     1.67212142     4.14218502     3.70240578    -2.51754353    -0.79732037
Au     1.76889113     2.83249439    13.65546706    -0.10723462     0.48361313     3.08095887
Au     0.87727322     0.47991912    13.38189183    -5.84595758     2.08772492    10.44266715
48
Lattice="10.91300 0.00000 -0.00000 2.67800 4.76500 0.00000 0.17400 0.45700 13.94600" Properties=species:S:1:pos:R:3:force:R:3 pbc="T T T" energy=-43779.93295660603 virial="33.6674 -5.1170 -18.8929 -5.1170 34.6889 11.6812 -18.8929 11.6812 33.2133"
Ag     4.33528730     4.46915143    11.49730239     7.64100153    -3.38151373    -9.42146545
Ag    10.55455550     3.46662020     1.85827183     0.95204344    -0.57089274     3.97616054
Ag     6.20647873     5.15788960    13.53864496    -1.48353213     0.19865403     2.27559644
Ag    10.75544853     1.95774433     4.37110634    -0.37154388     1.31868902     0.14533335
Au    12.10424371     2.77828790     6.81699008     2.46874028    -1.75650107    -3.24491108
Au     7.09607805     4.25477754    11.22194364     0.02829285     3.12065791    -2.56430779
Au     5.29895315     4.93045709     6.90459744     0.34987235     0.57069592    -0.02502106
Au     6.46343587     3.76592724     4.12770752     2.60475645     1.42600291     1.76067268
Au     7.87144690     0.28887619     6.79601462     2.69574436     1.51412062    -1.29301099
Au     3.08268500     3.58087117     9.09121948    -0.47907103     0.17082692    -2.46342222
Au     6.14920095     0.57524798    13.65682026     0.85993392     0.40831109    -2.68850229
Au     2.36774959     1.37949513     4.65058837    -1.16572001     2.99066638    -0.81105443
Au     5.14954746     3.47064362     2.03131414    -0.57460500     0.75033848    -0.04932300
Au    11.54165111     5.03242492    13.71761492    -0.83106022     0.95980922    -2.29657044
Au    11.12923824     3.55272366     8.96468748    -0.45226445    -2.40812442     2.46464979
Au     9.66482028     2.10324354     0.07401920     0.98880554     0.69450527    -4.19970506
Au     9.89890279     3.98924353    11.72397876    -0.34195972    -0.34175492    -1.23844186
Au     9.17528200     4.29759580     3.95010749     0.15422839    -1.42115967     2.08931339
Au     6.98866233     0.89526790     9.18946448    -0.64985756     2.97925368     0.17459715
Au    11.29351829     1.80158108    10.99570366    -0.24145958     2.82816426     2.88583151
Au    12.09224679     4.29214450     4.52650893    -0.07855831    -4.44750983     0.04850607
Au     8.70818538     1.43612426    11.25653676    -3.45286680     3.32283725     2.40194212
Au    12.73710432     4.14693995    11.22083468    -2.50411579    -1.20571127     1.39223395
Au     9.76260658     0.93272380     8.90656260     1.00881552     2.91420792    -0.03613545
Au    10.63206640     0.46811941     6.62499660     2.68797472    -0.71745185    -0.72551914
Au     4.26569070     2.55728422     6.63325370    -7.18392374    -1.32078577     2.80498562
Au     9.34601185     0.78986495     2.20557015    -2.81344760     2.50467087     1.19942808
Au     0.82851707     1.07659214     2.03936191     4.36040505     0.95231754    -0.32952105
Au     5.51316173     3.24583484     9.12445105     3.91818437     2.43951621    -2.25750978
Au     7.91526823     3.68914917     1.73668921    -1.69687986    -0.82955202     2.04797050
Au     8.10434809     1.59522465     4.36889219    -2.17257624     4.60611833     0.70290802
Au     2.43955913     3.47952813     2.23415908    -0.11155764    -2.70301319    -0.74607738
Au     3.27938591     2.18807943    11.83001626    -0.67643339    -3.86728129    -4.37321443
Au     5.71977719     1.98900830    11.27660806     1.98716296    -2.71421284     1.58675249
Au     4.30275077     0.93268080     8.97568662     0.87368492    -1.54416331    -0.38111305
Au     9.28239492     2.83034691     6.82113061     0.96251524    -4.69156848    -1.02762180
Au     8.02683769     4.88525512     6.42253754    -3.20187227     2.10311208    -0.50451162
Au     6.89079708     1.26767428     1.86950667    -2.63176756     0.99712530     0.55173633
Au     8.60467098     3.29825423     9.34044233    -3.33478171    -0.52376602    -0.82413555
Au     1.79079765     1.32719565     9.02137911    -0.60284617    -1.98960299    -0.20250328
Au     7.34608848     2.95109026    13.25821957     2.10946707    -3.40808665     2.32178618
Au     6.63280615     2.57030971     6.49162337     4.61944845     0.21398870     0.99955740
Au     3.80167049     3.96208961     4.54852058    -2.17291057     1.32106322    -0.74338927
Au     4.76892300     2.77719601    13.89416743    -0.99694260     0.77966168    -1.96196208
Au     3.42617134     1.18356692     1.98109859     1.16629370    -2.24062285     0.05931517
Au     4.81001149     1.67127526     4.14096338     3.68209047    -2.50140972    -0.79086238
Au     1.76965719     2.83276265    13.65329338    -0.11450018     0.51892450     3.11455779
Au     0.87746268     0.48170654    13.38262461    -5.78541794     1.97877612    10.21714457
48
Lattice="10.91300 0.00000 -0.00000 2.67800 4.76500 0.00000 0.17400 0.45700 13.94600" Properties=species:S:1:pos:R:3:force:R:3 pbc="T T T" energy=-43780.044666830785 virial="33.6500 -4.9976 -18.7594 -4.9976 34.6670 11.5938 -18.7594 11.5938 33.1603"
Ag     4.33950446     4.46686070    11.49474269     7.47868564    -3.20065850    -9.15730259
Ag    10.55571497     3.46581579     1.85841355     0.90718294    -0.55067478     4.01388235
Ag     6.20561719     5.15685580    13.53762094    -1.47805670     0.20233776     2.28676801
Ag    10.75856439     1.95574281     4.37226391    -0.41807602     1.33585698     0.11923671
Au    12.10676748     2.77716361     6.81689369     2.42259272    -1.72416503    -3.18849321
Au     7.09688493     4.25429596    11.22320147     0.03163346     3.15066821    -2.64807163
Au     5.29908461     4.92968091     6.90556605     0.35263756     0.58678703    -0.02402631
Au     6.46210635     3.76472030     4.12704017     2.60591589     1.44288646     1.77478425
Au     7.87054144     0.29011858     6.79477237     2.66899090     1.41165378    -1.28046979
Au     3.08247836     3.58317030     9.09015879    -0.51370550     0.13424669    -2.47719549
Au     6.14889784     0.57715083    13.65570067     0.85802129     0.35660478    -2.63098848
Au     2.36852671     1.37943809     4.65190956    -1.14288427     2.96346008    -0.81170533
Au     5.14957512     3.47111576     2.02991798    -0.61532551     0.72111343    -0.04541412
Au    11.54081144     5.03222068    13.71837112    -0.81437218     0.99819930    -2.30840018
Au    11.12911054     3.55444737     8.96503072    -0.45879448    -2.48889407     2.41199197
Au     9.66727193     2.10397479     0.07383565     0.93377832     0.63986230    -4.17634908
Au     9.89884109     3.98747034    11.72509963    -0.33704897    -0.31240614    -1.24820870
Au     9.17500286     4.29784886     3.95078622     0.17605126    -1.42962880     2.06248442
Au     6.98932371     0.89561012     9.18923459    -0.67549575     2.97316875     0.16628614
Au    11.29280089     1.80291618    10.99660526    -0.21303208     2.75220792     2.88189216
Au    12.09299842     4.29140956     4.52888836    -0.14888329    -4.39438251     0.00128794
Au     8.70653380     1.43650856    11.25632298    -3.41991300     3.26459114     2.42263705
Au    12.73856506     4.14676807    11.22033539    -2.50146617    -1.15366065     1.40945809
Au     9.75959989     0.93273186     8.90672498     1.07391764     2.94674991    -0.05258218
Au    10.63124570     0.46890230     6.62415490     2.70369827    -0.71338197    -0.66166061
Au     4.26659716     2.55822608     6.63508532    -7.21763995    -1.31733169     2.75886216
Au     9.34635088     0.78836353     2.20625395    -2.84530603     2.56793605     1.19745822
Au     0.82953062     1.07672690     2.03933568     4.30974844     0.94933593    -0.32769128
Au     5.51178633     3.24581659     9.12485444     3.96050658     2.45909341    -2.24586716
Au     7.91365849     3.68903723     1.73647929    -1.62401103    -0.79262335     2.00926321
Au     8.10404408     1.59721398     4.37002675    -2.10458551     4.53316043     0.65901415
Au     2.43882522     3.47983722     2.23521299    -0.06277990    -2.76594999    -0.75929802
Au     3.28173658     2.18885604    11.83084815    -0.70296330    -3.88279607    -4.39984416
Au     5.72048771     1.98754160    11.27594021     2.00318782    -2.71510666     1.57539053
Au     4.30511436     0.93325715     8.97484341     0.79294752    -1.57188343    -0.36286271
Au     9.28115189     2.82844579     6.82116718     0.97612032    -4.56712632    -1.03041494
Au     8.02453033     4.88641759     6.42192127    -3.14149107     2.02025854    -0.49343710
Au     6.89000361     1.26979921     1.87015808    -2.60771154     0.93637523     0.54773822
Au     8.60436025     3.29778304     9.34026274    -3.32863131    -0.48777380    -0.82508276
Au     1.78907824     1.32682863     9.02148311    -0.54347914    -1.95929488    -0.19000322
Au     7.34662635     2.95076561    13.25662523     2.14262941    -3.42646673     2.38994730
Au     6.63285099     2.56903915     6.49107482     4.61445040     0.25274863     0.99751458
Au     3.80083485     3.96165231     4.54792819    -2.13350229     1.30553458    -0.72435936
Au     4.76918217     2.77650372    13.89378423    -1.01160749     0.79633335    -1.92570754
Au     3.42447717     1.18131781     1.98098595     1.20090273    -2.16225564     0.04846514
Au     4.81022573     1.67030875     4.13970600     3.65762665    -2.47891696    -0.78199157
Au     1.77041580     2.83305566    13.65127732    -0.11602397     0.55430826     3.14121007
Au     0.87736863     0.48358647    13.38385552    -5.69781897     1.83850837     9.91967099
48
Lattice="10.91300 0.00000 -0.00000 2.67800 4.76500 0.00000 0.17400 0.45700 13.94600" Properties=species:S:1:pos:R:3:force:R:3 pbc="T T T" energy=-43780.20029292289 virial="33.6201 -4.8556 -18.5877 -4.8556 34.6343 11.4792 -18.5877 11.4792 33.0903"
Ag     4.34437555     4.46429172    11.49137370     7.28025191    -2.99192460    -8.83394607
Ag    10.55695162     3.46496485     1.85891325     0.86016487    -0.53240153     4.04048721
Ag     6.20462651     5.15584348    13.53680452    -1.47087818     0.20304984     2.29289460
Ag    10.76163263     1.95386719     4.37342830    -0.46623423     1.34913803     0.09221339
Au    12.10940139     2.77595871     6.81664169     2.37363289    -1.68907706    -3.12515027
Au     7.09769069     4.25397004    11.22432564     0.03688391     3.17474423    -2.71905238
Au     5.29923288     4.92893600     6.90653030     0.35407757     0.59900642    -0.02607573
Au     6.46090867     3.76358790     4.12646182     2.59995186     1.46002476     1.78732599
Au     7.86976949     0.29142591     6.79347160     2.63722466     1.30240800    -1.26498632
Au     3.08224727     3.58546841     9.08898047    -0.54805044     0.09753347    -2.48850378
Au     6.14863770     0.57906484    13.65445610     0.85251775     0.30132939    -2.56766570
Au     2.36924537     1.37952617     4.65318668    -1.11634108     2.93360670    -0.81320792
Au     5.14957259     3.47162160     2.02852421    -0.65598883     0.68968183    -0.03932974
Au    11.53993470     5.03206594    13.71901194    -0.79950700     1.03316752    -2.31312274
Au    11.12896083     3.55604367     8.96549078    -0.46466049    -2.56370651     2.35304206
Au     9.66976115     2.10473492     0.07344846     0.88224450     0.58915240    -4.14348935
Au     9.89876311     3.98568771    11.72615576    -0.33297682    -0.28174782    -1.25916304
Au     9.17473325     4.29803117     3.95156356     0.19944913    -1.43590304     2.03612316
Au     6.98994987     0.89609660     9.18901359    -0.69882801     2.96100109     0.15513629
Au    11.29207545     1.80438147    10.99764482    -0.18256725     2.66538871     2.88000684
Au    12.09374028     4.29046214     4.53126000    -0.22304775    -4.33107193    -0.04789466
Au     8.70472042     1.43705125    11.25622838    -3.38186116     3.20271012     2.43940722
Au    12.73989863     4.14654034    11.21990668    -2.48881778    -1.09645702     1.42656520
Au     9.75665565     0.93288400     8.90688425     1.13670202     2.97373719    -0.06693613
Au    10.63055992     0.46964771     6.62328362     2.71842502    -0.71040464    -0.59727299
Au     4.26714765     2.55910040     6.63704581    -7.23237267    -1.31011259     2.70837273
Au     9.34654965     0.78699266     2.20699406    -2.86558897     2.62887958     1.19333953
Au     0.83075159     1.07690764     2.03929352     4.24617452     0.94241538    -0.32142786
Au     5.51060916     3.24591866     9.12514665     3.99789105     2.47268933    -2.23295645
Au     7.91197465     3.68888689     1.73636832    -1.54717235    -0.75306296     1.96557574
Au     8.10363815     1.59941844     4.37118979    -2.03147770     4.45045159     0.61410160
Au     2.43809067     3.48001003     2.23622629    -0.01566751    -2.81977969    -0.77217323
Au     3.28404511     2.18944019    11.83146212    -0.73282703    -3.89295774    -4.42043017
Au     5.72129384     1.98594696    11.27535162     2.01868079    -2.71214772     1.56060938
Au     4.30750893     0.93375473     8.97398523     0.71398797    -1.59499557    -0.34552440
Au     9.27996071     2.82632760     6.82115324     0.99014034    -4.43098520    -1.03261017
Au     8.02207696     4.88767503     6.42128290    -3.07217152     1.93319141    -0.48028127
Au     6.88908522     1.27196291     1.87083412    -2.58470886     0.87279120     0.54353687
Au     8.60388776     3.29728956     9.34004341    -3.31851152    -0.44946404    -0.82840214
Au     1.78733793     1.32636699     9.02157747    -0.48639522    -1.92652738    -0.17577994
Au     7.34726724     2.95027447    13.25515304     2.17118654    -3.43397113     2.45102172
Au     6.63312135     2.56778514     6.49057685     4.58741258     0.29224976     0.99702998
Au     3.79989764     3.96128029     4.54730233    -2.08780268     1.28609690    -0.70505287
Au     4.76939102     2.77585266    13.89330813    -1.02693507     0.81384355    -1.88998335
Au     3.42284733     1.17897038     1.98087605     1.23932934    -2.08225643     0.03859110
Au     4.81061815     1.66922421     4.13841453     3.62912330    -2.45022089    -0.77081484
Au     1.77116622     2.83337481    13.64942154    -0.11179154     0.58953033     3.16090872
Au     0.87699624     0.48555010    13.38556749    -5.58575111     1.67007931     9.55826955
48
Lattice="10.91300 0.00000 -0.00000 2.67800 4.76500 0.00000 0.17400 0.45700 13.94600" Properties=species:S:1:pos:R:3:force:R:3 pbc="T T T" energy=-43780.39724911789 virial="33.5779 -4.6934 -18.3813 -4.6934 34.5912 11.3416 -18.3813 11.3416 33.0046"
Ag     4.34990234     4.46145277    11.48721127     7.04809996    -2.75845024    -8.45841909
Ag    10.55826632     3.46406554     1.85977494     0.81092885    -0.51609594     4.05588866
Ag     6.20350334     5.15484845    13.53619256    -1.46191011     0.20081211     2.29396592
Ag    10.76466182     1.95211067     4.37460196    -0.51608680     1.35860172     0.06421550
Au    12.11215391     2.77467000     6.81623632     2.32182060    -1.65125234    -3.05489256
Au     7.09849896     4.25379943    11.22531754     0.04415866     3.19279011    -2.77716455
Au     5.29939863     4.92821979     6.90749410     0.35416260     0.60737130    -0.03116008
Au     6.45983736     3.76252608     4.12597056     2.58688456     1.47749240     1.79828045
Au     7.86912612     0.29279820     6.79210770     2.60060473     1.18634557    -1.24653227
Au     3.08198912     3.58777329     9.08767916    -0.58210458     0.06060870    -2.49721307
Au     6.14841911     0.58099528    13.65308462     0.84343096     0.24242752    -2.49855781
Au     2.36990994     1.37975809     4.65442507    -1.08605362     2.90101778    -0.81560874
Au     5.14953791     3.47216169     2.02712731    -0.69669763     0.65596720    -0.03097979
Au    11.53901803     5.03196170    13.71953996    -0.78641518     1.06474056    -2.31068877
Au    11.12878822     3.55751571     8.96606656    -0.46987195    -2.63253187     2.28799607
Au     9.67229576     2.10552458     0.07285788     0.83408462     0.54236356    -4.10101507
Au     9.89866874     3.98388974    11.72715109    -0.32975732    -0.24964167    -1.27134566
Au     9.17447319     4.29814327     3.95244137     0.22446116    -1.44004151     2.01017128
Au     6.99054233     0.89672861     9.18880001    -0.71976290     2.94272567     0.14109164
Au    11.29134042     1.80597865    10.99882642    -0.15011464     2.56798205     2.87972743
Au    12.09447186     4.28930164     4.53363135    -0.30094466    -4.25780419    -0.09908501
Au     8.70273974     1.43775136    11.25625325    -3.33869024     3.13715775     2.45223739
Au    12.74111140     4.14625868    11.21954750    -2.46639031    -1.03425877     1.44337791
Au     9.75376456     0.93318202     8.90704038     1.19717033     2.99509979    -0.07915686
Au    10.63000678     0.47035896     6.62238232     2.73219247    -0.70853584    -0.53232736
Au     4.26734419     2.55991128     6.63914073    -7.22813751    -1.29918629     2.65345881
Au     9.34660815     0.78574943     2.20779330    -2.87435769     2.68742142     1.18710088
Au     0.83218170     1.07713473     2.03923556     4.16963703     0.93157215    -0.31080705
Au     5.50962689     3.24614199     9.12532969     4.03040289     2.48027466    -2.21886364
Au     7.91021352     3.68869952     1.73635359    -1.46628249    -0.71086407     1.91702274
Au     8.10313232     1.60184291     4.37238394    -1.95332233     4.35813931     0.56801363
Au     2.43735470     3.48004480     2.23720263     0.02974306    -2.86444436    -0.78476221
Au     3.28631973     2.18983407    11.83186000    -0.76598201    -3.89760165    -4.43512915
Au     5.72219960     1.98421802    11.27483899     2.03361262    -2.70528460     1.54241956
Au     4.30994056     0.93417457     8.97310938     0.63662771    -1.61356427    -0.32897944
Au     9.27881701     2.82399042     6.82108868     1.00474299    -4.28338809    -1.03415826
Au     8.01947090     4.88902829     6.42062045    -2.99406936     1.84211538    -0.46513969
Au     6.88803938     1.27417126     1.87153739    -2.56269428     0.80626764     0.53911571
Au     8.60325223     3.29677362     9.33978328    -3.30443563    -0.40879110    -0.83406338
Au     1.78557227     1.32581054     9.02166330    -0.43149137    -1.89120942    -0.15977497
Au     7.34801508     2.94961461    13.25379968     2.19520221    -3.43041978     2.50493127
Au     6.63361676     2.56654437     6.49012732     4.53821620     0.33264444     0.99821437
Au     3.79885730     3.96097098     4.54664138    -2.03579578     1.26284712    -0.68546761
Au     4.76954972     2.77524092    13.89273898    -1.04293740     0.83214842    -1.85479586
Au     3.42127681     1.17651886     1.98076794     1.28172895    -2.00046396     0.02969523
Au     4.81118876     1.66801864     4.13708416     3.59655566    -2.41535179    -0.75739720
Au     1.77191182     2.83372313    13.64771905    -0.10181357     0.62451188     3.17377940
Au     0.87634979     0.48759728    13.38774936    -5.45167535     1.47637210     9.14028231
48
Lattice="10.91300 0.00000 -0.00000 2.67800 4.76500 0.00000 0.17400 0.45700 13.94600" Properties=species:S:1:pos:R:3:force:R:3 pbc="T T T" energy=-43780.63221343371 virial="33.5241 -45.1395 -18.1445 -45.1395 34.5381 11.1857 -18.1445 11.1857 32.9046"
Ag     4.35607356     4.45835998    11.48228138     6.78525168    -2.50416887    -8.03890137
Ag    10.55965679     3.46311785     1.86100192     0.75954625    -0.50180567     4.05996168
Ag     6.20224656     5.15386901    13.53578458    -1.45107991     0.19565886     2.28994488
Ag    10.76765204     1.95047161     4.37578419    -0.56757877     1.36427641     0.03527599
Au    12.11502690     2.77329721     6.81568015     2.26722335    -1.61079289    -2.97790831
Au     7.09931134     4.25378500    11.22617560     0.05358406     3.20464743    -2.82215283
Au     5.29958215     4.92753165     6.90845868     0.35284937     0.61186976    -0.03926530
Au     6.45889035     3.76153417     4.12556631     2.56676128     1.49530897     1.80758378
Au     7.86860875     0.29423196     6.79067941     2.55937968     1.06370310    -1.22512668
Au     3.08170181     3.59008666     9.08625226    -0.61577283     0.02349269    -2.50314209
Au     6.14824136     0.58294223    13.65158732     0.83077413     0.17998800    -2.42384984
Au     2.37052284     1.38013284     4.65562641    -1.05205262     2.86567101    -0.81895943
Au     5.14946898     3.47273524     2.02572553    -0.73737313     0.61997056    -0.02030562
Au    11.53806059     5.03190942    13.71995591    -0.77507368     1.09286242    -2.30104189
Au    11.12859215     3.55886217     8.96675593    -0.47444138    -2.69513108     2.21720558