128
Lattice="11.642 0.000 0.000 0.000 11.659 0.000 0.000 0.000 23.170" Properties=species:S:1:pos:R:3:forces:R:3 energy=-666.38256836 virial="-212.78675842 -0.04185565 2.14339852 -0.04185565 -214.88449097 -0.30931044 2.14339852 -0.30931044 -207.32975769"
Si     1.37009727     4.36525415     1.45445791     0.13622791    -0.08215413     0.04349834
Si     1.48185795     4.33933967     7.19389400    -0.50485474     0.06234434    -0.06735325
Si     1.50929258    10.21424974     1.47417833    -0.27097258     0.42993757     0.04511548
Si     1.29354326    10.09477356     7.18195964     0.61760807     0.05870784    -0.19368215
Si     7.18685883     4.35496362     1.49036139     0.24862996     0.26161858     0.08420267
Si     7.26572219     4.41349287     7.20234191    -0.10887348    -0.34587950    -0.00205593
Si     7.33679143    10.13098441     1.51135958    -0.33008856     0.12278298    -0.01867706
Si     7.19832708    10.12307077     7.29624510     0.17509781     0.10796936    -0.38283822
Si    11.61794419    11.72503277     3.06572672     0.20695409    -0.62938142    -0.79907167
Si    11.65989344    11.57120337     8.53773519    -0.32864976     0.12696098     0.81785941
Si    -0.09882609     5.76431791     2.96232679     0.91694736     0.23175283    -0.08674417
Si    -0.06646002     5.68105786     8.66443306     0.31634751     0.10888114     0.01712282
Si     5.80980922    -0.04058800     2.86234437    -0.01764387     0.18582523     0.06884237
Si     5.74969845    11.65844629     8.68686282     0.15243854    -0.07260006    -0.28026149
Si     5.67577149     5.90578568     2.89150243     0.20263566    -0.43722820    -0.09350014
Si     5.79236250     5.77016811     8.70716374    -0.06048632     0.39690065    -0.12359366
Si     1.51719546     1.40452569     4.31598924     0.18377411     0.01279591     0.44343770
Si     1.57621967     1.30646389    10.05430080    -0.64037859     0.43412346     0.07458790
Si     1.41090426     7.40447197     4.36809320    -0.16767505    -0.61273742    -0.38870245
Si     1.29651451     7.29099149    10.12510233     0.46774173    -0.22710966    -0.34825754
Si     7.21102824     1.45515362     4.32491939     0.12533551    -0.01659578     0.09790108
Si     7.22935068     1.46876083    10.07307829     0.29665497    -0.27218777     0.13974622
Si     7.22271054     7.26933570     4.30857568     0.05469152     0.00957137     0.26787385
Si     7.28481149     7.28521127    10.14188598     0.00548682    -0.29584515    -0.12035327
Si    -0.02388052     2.80915286     0.09550293     0.34390512     0.26663554    -0.37024733
Si     0.11288437     2.71824757     5.79619356    -0.24301399     0.64849299     0.07983458
Si    -0.06304556     8.76030644    11.49141534     0.45191130     0.24359494     0.53504807
Si    11.52337667     8.65460350     5.73326430     0.08319941     0.17214343     0.46009612
Si     5.73765990     2.97194099    23.15914846     0.32245177    -0.23346263    -0.08372866
Si     5.73642508     2.99215383     5.72764362     0.12779328    -0.30170721     0.08357279
Si     5.86615009     8.80335400    11.55624705    -0.00789875    -0.21126202     0.02802205
Si     5.74941301     8.73195921     5.79832344     0.01019537     0.03526390     0.03873050
Si     4.20045565     4.40003156     4.31723292     0.40298021     0.32789439     0.08367209
Si     4.27764727     4.32959353    10.07019047     0.24262604     0.10199923    -0.04465234
Si     4.30854043    10.27759115     4.35805422     0.32347989    -0.53519237    -0.07355593
Si     4.31246338    10.14767384    10.03110628    -0.03206930     0.22771041     0.60226262
Si    10.34038611     4.21335793     4.39805100    -0.86614710     0.26542094    -0.08389382
Si    10.26183104     4.17875549    10.13212929    -0.28992712     0.53648376    -0.01963996
Si    10.16302552    10.20550118     4.40190777    -0.20340326    -0.03228191    -0.00537559
Si    10.16943095    10.12434386    10.05231605    -0.09472512     0.04969978    -0.27321601
Si     2.95830522    -0.06397268    -0.05870575     0.17615686    -0.07380237    -0.05575100
Si     2.94258437    11.60322129     5.86801770    -0.58604681     0.00972935    -0.59567553
Si     2.80615251     5.81628568    -0.06184291     0.20160586     0.29748109     0.19954260
Si     2.80110641     5.96162180     5.77921275     0.34980112    -0.51515299     0.16239668
Si     8.70280246    11.58605001     0.06749105     0.40104741     0.16647065     0.29541954
Si     8.65799537    -0.05327397     5.81339285    -0.02904411     0.08830600     0.03317407
Si     8.74476082     5.82657962     0.08603469    -0.14548770    -0.11296859     0.03972866
Si     8.74985712     5.74278558     5.70629853    -0.19977818    -0.21135065     0.04045774
Si     4.35202289     1.37971506     1.34225035     0.04799790     0.41925311     0.45903429
Si     4.34559299     1.41986151     7.12874513     0.05584428     0.36658418     0.61270750
Si     4.23775878     7.30466098     1.41989614     0.22065407     0.14903978     0.03606999
Si     4.27680934     7.31519790     7.31719953     0.09660508    -0.19932142    -0.41360533
Si    10.23744723     1.45569716     1.56928210    -0.47611475    -0.34037191    -0.20305416
Si    10.18574169     1.38005115     7.20806744    -0.14020248     0.04856864     0.00265149
Si    10.28846561     7.30507229     1.55425261    -0.50851119    -0.07018349    -0.37848026
Si    10.14586985     7.03906412     7.17903208     0.03253921     0.72250801     0.05691296
Si     2.87588690     2.91818013     2.87408483    -0.04790533    -0.22855067    -0.25576395
Si     2.80314802     2.88127989     8.58283401     0.86341375    -0.20349044     0.25897169
Si     2.86519069     8.80968221     2.92003450     0.13470009    -0.16240898    -0.00507620
Si     2.72813539     8.72677790     8.65328541     0.30402943    -0.05629229     0.15064922
Si     8.75039529     2.88960467     2.95212549    -0.16064432     0.00031109    -0.08442844
Si     8.71590482     2.89666221     8.66366067     0.08136053    -0.20498908    -0.16353349
Si     8.77956173     8.71097841     2.98598000    -0.14904723     0.04888871    -0.30703700
Si     8.71858069     8.57029826     8.57178656    -0.01615274     0.41794693     0.42864412
Si     1.50347474     4.48365928    12.94934493    -0.13787922    -0.20880301     0.25584346
Si     1.43190881     4.43614483    18.95881597     0.07264726    -0.13283938    -0.48180747
Si     1.52715758    10.35825976    13.09062985    -0.38692608    -0.73699832    -0.35310590
Si     1.28409709    10.23140211    18.88250837     0.74591666     0.54279059     0.02076381
Si     7.45388217     4.33554909    12.93164745    -0.53380114     0.19153126     0.57200396
Si     7.32722375     4.37730763    18.94638263     0.08478747     0.04315055    -0.18929425
Si     7.31964829    10.24884106    13.08568811    -0.03034943    -0.24345112    -0.20123206
Si     7.26192250    10.16127150    18.76951675     0.29393634     0.38213831    -0.06063701
Si    11.63710166    11.72404922    14.52729397     0.42830768     0.05775686     0.08162373
Si    11.59982775    11.69198272    20.41128400    -0.01016942    -0.26280868    -0.43314362
Si     0.01895866     5.93309220    14.51316386     0.47879255    -0.23755458    -0.21773829
Si     0.01787650     5.79994392    20.42660336    -0.40096223     0.11307336    -0.17040783
Si     5.84386146     0.09031258    14.52424523    -0.09102683    -0.22302416    -0.24121687
Si     5.94194836    11.69300225    20.15772072    -0.23926543    -0.11076207     0.56417096
Si     5.94196952     5.75767802    14.50447444    -0.14392900     0.27316266    -0.18558632
Si     5.82797508     5.90671988    20.27228243    -0.07733189     0.07689511     0.14302857
Si     1.61342787     1.59666929    15.96800286    -0.77737927    -0.26878214    -0.18372121
Si     1.59672743     1.42044601    21.71341532    -0.67266864     0.24579668     0.21162187
Si     1.52135779     7.41562398    15.92713862    -0.59514618    -0.17458504     0.20960438
Si     1.41809065     7.34796325    21.71035528     0.43373084     0.10009591     0.04459704
Si     7.27031872     1.56891761    15.87313266     0.30769902    -0.07486340     0.46983373
Si     7.33461726     1.40204376    21.86348384    -0.45361146     0.17281458    -0.66771150
Si     7.30246133     7.26093722    16.02710247     0.14886266     0.10097878    -0.23475353
Si     7.21184147     7.28573715    21.87305140     0.45933580     0.05543153    -0.63471055
Si     0.13207569     2.80873486    11.56332363    -0.12355612     0.16039348    -0.11562480
Si     0.06062312     2.92101089    17.45741185     0.08778624     0.11262646    -0.05403051
Si     0.11130347     8.81401129    23.20826470    -0.63101065    -0.36841992     0.05689329
Si    11.56338269     8.82734044    17.50292053     0.23567280    -0.49801040    -0.49848357
Si     5.88185077     2.97419953    11.48930320    -0.10569918    -0.23454759     0.22897670
Si     5.89403256     3.06032449    17.39009006    -0.29031843    -0.38501492    -0.13355774
Si     5.81710433     8.78037815    23.19936408    -0.15927079    -0.26111081     0.06266882
Si     5.74778128     8.83412784    17.34038045     0.05181596    -0.46460444     0.06284764
Si     4.32969122     4.46919514    15.96055804     0.30021185     0.01395645     0.00357238
Si     4.35387949     4.50271236    21.63161921    -0.11283873    -0.52316374     0.41793990
Si     4.23179873    10.26798630    15.93207377     0.65682149    -0.04116639    -0.14914572
Si     4.48585602    10.17337308    21.58941646    -0.25469771     0.50843722     0.33997798
Si    10.33466936     4.41945211    16.00176869    -0.47321343     0.09705618     0.12277885
Si    10.15300738     4.24859805    21.80775677     0.13736635     0.25202924    -0.00194627
Si    10.19525265    10.19464150    15.95276266    -0.03997687     0.10437694    -0.19789444
Si    10.12355549    10.15766654    21.78752014     0.35421789     0.31250930     0.02931042
Si     2.98586426     0.02395287    11.61302413     0.23729406    -0.13860658    -0.27911985
Si     2.88416958    11.70940269    17.41639120     0.00467238     0.01174846    -0.04015696
Si     2.93056157     5.91420656    11.46822578    -0.05744244    -0.24033944     0.34551567
Si     2.83977194     5.95304592    17.44145199     0.16793448    -0.30934465    -0.17659014
Si     8.78576880    11.57455339    11.54314381    -0.25971174     0.53922451     0.06002182
Si     8.74887605     0.01326385    17.30503626    -0.28993767    -0.08732390     0.15835983
Si     8.80569275     5.81582838    11.55413648     0.22246626    -0.10040177    -0.18892559
Si     8.84586773     5.85818429    17.57908696    -0.31590530    -0.18357351    -0.58351266
Si     4.50541105     1.50123410    12.98353766    -0.47294348     0.26862240     0.11680010
Si     4.46894857     1.47966731    18.75087873    -0.24167192     0.26376188     0.26970121
Si     4.51486007     7.23269655    12.98565352    -0.39637005     0.30604786     0.07177392
Si     4.26405035     7.37029652    18.83735312     0.60280883     0.04105612    -0.24864852
Si    10.24009120     1.46363418    13.00579100    -0.07351401    -0.08710808     0.18995002
Si    10.18186211     1.37392059    18.80487099     0.14947978     0.32847926     0.24909613
Si    10.28461854     7.27902396    12.95543281    -0.55397558     0.09203455     0.30160630
Si    10.20454671     7.30639474    18.99896261     0.14215221    -0.00617548    -0.21384150
Si     2.94243595     3.06209180    14.43336480     0.30210114    -0.31717241     0.05555449
Si     2.93811424     2.96897541    20.25199922     0.25561416    -0.17575312     0.02010767
Si     2.94937010     8.73674937    14.41429057     0.07748947     0.29867029     0.12744382
Si     2.94566480     8.90312898    20.15838650    -0.50992632    -0.63700223     0.60838211
Si     8.82261845     2.99288209    14.55501566     0.10902870    -0.22812231    -0.54852855
Si     8.74327255     2.75886334    20.31386559    -0.00482154     0.48460999     0.15918323
Si     8.78487637     8.68672667    14.46695260    -0.10988975     0.18463521     0.16073099
Si     8.71768903     8.76905013    20.28504516    -0.27693951    -0.25054923     0.42680800
128
Lattice="10.375 0.000 0.000 0.000 10.252 0.000 0.000 0.000 21.396" Properties=species:S:1:pos:R:3:forces:R:3 energy=-663.18115234 virial="247.01307678 7.85977507 -6.68086672 7.85977507 257.41705322 0.06251192 -6.68086672 0.06251192 230.67294312"
Si     1.36339394     3.81839142     1.21111216    -0.00961533    -0.32903934    -0.46075708
Si     1.18110725     3.66908071     6.57432325     2.08978367    -0.37798002     1.08488178
Si     1.38264287     9.11597435     1.19240271    -0.50069243    -1.35483849     0.49680600
Si     1.23807314     8.72721964     6.56219404    -0.43220866     1.16631460     0.81270957
Si     6.49560545     3.90343377     1.54515661    -2.13988972    -0.43009490    -0.54776216
Si     6.31007530     3.58794175     6.71253428    -0.40619126     0.83853489    -0.03744134
Si     6.22758254     8.88703180     1.51206630     1.26096487    -0.30130416    -0.51771569
Si     6.34179799     8.75307264     6.65406431     0.75563288     0.46349883     0.02187875
Si    10.35391320     9.97687217     2.71772799     0.10712949     0.86653477     0.91791487
Si    10.23530708    10.15589053     8.08826904     1.36227798    -0.22046855    -1.80543470
Si     0.13821332     4.91133217     2.63267334    -2.93432522    -0.12481290    -0.01027840
Si    -0.01672767     4.89803456     7.88958499    -1.21973181     0.79305756     0.00448768
Si     5.05898072     0.07974353     2.70114635     0.29203916    -0.77919161     0.88931358
Si     5.15278955    10.16842838     7.82519048    -0.35339695    -0.33411443     1.38964057
Si     4.99837119     5.12912724     2.63123227     0.29088125     0.75956059    -0.63146961
Si     5.09580917     5.25271979     7.82434726     1.00718343    -1.42609096     0.43226692
Si     1.30764250     1.23788652     4.01926873    -1.37666106     0.60906023    -1.13158989
Si     1.21238426     1.23299610     9.28543787     1.57383215    -0.81504995    -0.54959846
Si     1.20246696     6.32079163     3.86613846     0.38146397     1.06720293     1.90875053
Si     1.22462484     6.16459036     9.16881915    -0.16889244     1.25758958     1.65171731
Si     6.33576802     1.23669780     4.09749131     0.93645334    -0.03526814    -1.11045289
Si     6.41802226     1.14984215     9.20781015    -0.02788074     0.29057893     0.81180263
Si     6.25550344     6.34132942     4.02750109     0.92322206    -0.70593870    -0.23011875
Si     6.47423782     6.14399872     9.35573375     0.19861466     0.37754884     0.31567970
Si     0.01454463     2.45406749     0.06959777    -0.12128519    -1.03235626     1.37210596
Si    -0.12323839     2.43893196     5.42213828    -0.42492679    -1.25384116    -1.65941250
Si    -0.06192401     7.69381915    10.58453205     0.82821929     0.14507422     0.21270770
Si    10.14302634     7.50448618     5.37419319     0.60133910    -0.03260420    -0.96803814
Si     5.23774409     2.66868091    21.43668517     0.71942526    -0.10082710     0.53835905
Si     5.01492020     2.55780249     5.17071042    -0.57908022     0.82229751     0.72697866
Si     5.34737562     7.60305863    10.68069129    -0.63728487     0.15139782    -0.69962662
Si     5.05630663     7.53487978     5.40810867     0.32608107     0.08354899    -0.21290362
Si     3.73184344     3.98957425     3.96139153    -0.25556570    -2.02863240    -0.39707932
Si     3.99006073     3.88735179     9.24921976    -0.35321474    -0.25275353     0.39980495
Si     4.03248864     8.76254848     3.95180310    -1.12269211     1.51754141    -0.06118772
Si     3.93342144     8.91944672     9.37263730     0.22604591    -0.47171310    -0.56624293
Si     8.95106244     3.55821071     3.93853298     1.21855068     1.56277943     0.42707145
Si     9.13402690     3.59328512     9.22573761    -0.51656055     0.10663712     0.21491604
Si     8.83981703     8.88763205     4.08513108     0.75515181    -0.12706953    -0.16948560
Si     8.85786728     8.83531553     9.11942676     0.61949444     0.46555313     2.63433218
Si     2.74589230     0.00864421    -0.13009413    -1.25613928     1.82059312     1.07718718
Si     2.48820360    10.07914660     5.16210549     1.58743834    -0.58181417     1.54150820
Si     2.56917182     5.25829670     0.04702751    -0.03477559    -0.77915877    -0.94334388
Si     2.45329592     5.02406024     5.36523274    -1.29023707     0.67832130    -0.50906312
Si     7.71635986    10.18549838     0.25892592    -1.30748844    -0.09922435    -1.20962906
Si     7.54042451    -0.07020552     5.39848493     0.25596756    -0.59792268    -0.14569063
Si     7.70380325     5.06268791     0.24648445    -0.09912009    -0.54865181    -2.71999073
Si     7.49652762     4.82501495     5.22783573     0.97416401     0.65734804     0.30093741
Si     3.99790001     1.31697505     1.30535133    -1.15980566     0.11479257    -1.01879716
Si     3.91231979     1.26814376     6.63128964    -0.94913876    -1.06893611    -1.62715983
Si     3.73884870     6.52998728     1.36593700     0.32910305    -0.96410757     0.79637372
Si     3.70297217     6.33860395     6.56699848    -0.83738518     0.25892460     0.76466542
Si     9.05362355     1.12925886     1.52253879     0.96161520     0.86984110    -0.33396059
Si     8.93704838     1.10578889     6.64350940     1.57972205    -1.03608704    -0.60404009
Si     8.97816230     6.30479535     1.33654907     1.55547976     0.20242018     2.86645794
Si     8.88880321     6.18823179     6.65598194    -0.35176986    -0.86684608    -0.16060251
Si     2.55834812     2.51225896     2.52492815     0.22158988    -0.08530161     1.43960226
Si     2.71226400     2.44482872     8.01065153    -1.52626586     1.04617727     0.28534335
Si     2.52309268     7.73979961     2.70186135    -1.24057055     0.48048458    -0.08064754
Si     2.53543057     7.57344626     8.03443129     0.24711165     0.72912556     0.16847578
Si     7.61865042     2.45404243     2.61911738     0.21933287    -1.88991022     0.89576840
Si     7.75474904     2.34968313     7.87485306    -0.71215487     1.46633351     1.51455331
Si     7.66475787     7.52492735     2.72652458    -0.19978511     0.40297845    -0.27766854
Si     7.61163921     7.51876653     7.97342624    -0.22523850    -1.14349651    -0.50922894
Si     1.41809358     3.78521777    11.89072646     0.25158536     0.43011948     0.75482327
Si     1.39853218     3.95121882    17.44654079    -0.08381599     0.47673851     1.30432880
Si     1.54329728     9.10735467    12.06096574    -1.92114997    -0.14564718    -1.44923544
Si     1.44681967     9.32449061    17.46695652    -0.74335480    -1.40709639    -0.70181036
Si     6.60199487     3.90885443    12.11960313     0.40768272    -0.12388955    -0.91722476
Si     6.65726275     3.87392932    17.53267882    -0.84205031     0.27058804     0.47721618
Si     6.57572176     8.90541555    11.97413799    -0.36624938     1.30320215     0.04954826
Si     6.58362295     8.92394618    17.38056420    -0.53897166     0.47308093     0.46452919
Si    10.62013700    10.30991323    13.50369393    -1.12247765    -1.09002090    -1.77433300
Si    10.28631940    10.29455461    18.79450185     0.45975244    -0.26543623    -0.09283305
Si     0.16418256     5.06433896    13.27028048    -0.69927800     1.03171480     0.79590678
Si    -0.14238694     5.04449171    19.00354687     1.35798430     0.63741255    -1.08192575
Si     5.32555875     0.18699106    13.19345520     0.26130772     0.39002532     0.89941692
Si     5.20741179    10.34531939    18.69598609     0.59847152    -0.36551109    -1.98969626
Si     5.34388904     5.37844582    13.35089168     0.22186849    -0.52155423    -0.46617985
Si     5.21359713     5.28324427    18.86001462    -0.45630205    -0.49505371    -0.85732204
Si     1.23008660     1.56124698    14.62095911     1.68541801     1.27532220     1.33265245
Si     1.25126768     1.31452549    20.03440286     1.14972949    -0.28365314     0.02639690
Si     1.34607247     6.60719485    14.67977553    -0.30019677    -0.02308481    -0.08930020
Si     1.24903042     6.52859118    20.17874998    -1.07222331    -0.12520614    -0.14227553
Si     6.69955077     1.58684192    14.75644506    -0.15154937    -1.04153371    -0.46792054
Si     6.38582879     1.27930432    20.07793690     1.41304839    -0.06408702     1.44242036
Si     6.71616199     6.43649329    14.76672619    -0.95118797    -0.35079095    -0.23558746
Si     6.64522739     6.41769513    20.21637118    -2.35359144    -1.15218186     1.54565334
Si     0.13647341     2.51517148    10.63575407    -0.83576429     0.41010123     0.44317949
Si     0.05698544     2.68596502    16.23495053     0.03489108    -0.14489192    -0.96508789
Si    -0.21902973     7.69629328    21.58989115     2.17479420     0.69654292    -0.70294857
Si    10.28032205     7.85419571    16.16744192     1.10819376    -0.23935868     0.31740820
Si     5.32120682     2.61194958    10.61179112     0.30687544     0.38398278     0.12691043
Si     5.20284617     2.81032387    16.07292727     1.19920409    -0.40430146     0.04013955
Si     5.03075544     7.63386884    21.45446875     1.41088891     0.75946462    -1.65766382
Si     5.34407412     7.70899564    15.88870932    -0.28864357     1.46073329     0.32215613
Si     4.07591240     4.16210247    14.71707931    -0.34012511    -0.61311358    -0.25865275
Si     3.84602505     3.82492543    20.19778615     0.04645373     1.43077922    -1.01775575
Si     4.03603870     9.17697398    14.69577804     0.02790266     0.38794389    -0.02984428
Si     4.02100383     9.13020592    20.01787010     0.01873310    -2.56282330    -0.44301933
Si     9.15578497     3.98940404    14.88715632     1.43279529    -1.01249814    -1.83815145
Si     9.05676947     3.74085393    20.36881401    -0.25128323     1.57651925     0.28808928
Si     9.14961722     8.99970842    14.55436952     0.35347426     0.76325905     1.47669804
Si     9.11756271     9.08658277    20.23963204    -1.07309484    -0.28020018    -0.39968881
Si     2.76041298     0.11042791    10.63411777    -0.55011600     0.38639992    -0.08577655
Si     2.64373058    10.58418442    15.99307219    -0.00459419    -0.72095048    -0.60631311
Si     2.66064676     5.16322478    10.63389735     0.32817870     0.23926012    -0.12983553
Si     2.60756008     5.20000663    15.99642254    -0.09060214     1.09205985     0.60434997
Si     7.80276227    10.31867773    10.66244867     0.18548749    -0.82046187    -0.46423554
Si     7.93528184    -0.01826269    16.12557316    -0.10604724     0.92531979    -0.75546271
Si     8.07446828     5.07696891    10.59953528    -0.87267339    -0.14877182     0.74697113
Si     7.83095874     5.15248680    16.08825367     0.10857371     0.53392196     2.07758451
Si     3.86782605     1.56700169    11.98808240     1.17975855    -1.51642156    -0.57266718
Si     3.98081068     1.46187318    17.37921791     0.90940696    -0.69629329    -0.59949756
Si     3.92053445     6.52672650    12.04043796     0.27924716    -1.06073284    -0.98397356
Si     3.96380515     6.67420405    17.23349312    -1.01944423    -1.29704475     1.85524225
Si     9.31042664     1.16341693    11.95127189    -0.18025208    -0.02618497     0.51277280
Si     9.15153803     1.40805872    17.50538906    -1.02546835    -0.26293048    -0.42273340
Si     9.03135728     6.52539344    12.14259071     1.35252357    -1.08677745    -0.98184562
Si     9.02899075     6.44219405    17.61627304     0.08288311     0.35365888    -0.40185362
Si     2.81655673     2.79647034    13.40841193    -1.27129936     0.32854170     0.87481648
Si     2.71408118     2.52425005    18.74441039    -1.41565597     1.16229677     0.60364962
Si     2.80512203     7.86955681    13.30631673    -0.58540922    -0.36644596     1.97353125
Si     2.50238807     7.79926610    18.83324969     1.20651174     0.32418799    -1.06040514
Si     8.19441144     2.66300180    13.24215881    -0.96324587     0.07293308     0.80400062
Si     7.89912962     2.57137643    19.00390527    -1.17037880    -0.64017749    -1.77202117
Si     7.75677993     7.76242798    13.43581396     0.41194317     0.33405149    -0.73928499
Si     7.67792621     7.76377011    19.00965796     2.04558516     1.56876040    -2.01461220
128
Lattice="11.467 0.000 0.000 0.000 11.386 0.000 0.000 0.000 23.323" Properties=species:S:1:pos:R:3:forces:R:3 energy=-671.40216064 virial="-177.04902649 0.55516088 0.68449545 0.55516088 -168.85551453 1.40387225 0.68449545 1.40387225 -194.73550415"
Si     1.48836511     4.17088838     1.37756195    -0.48006940     0.21234673     0.47219414
Si     1.37972827     3.96972552     7.28983377    -0.56599909     0.67994583    -0.51723659
Si     1.42673373     9.96684344     1.35983058    -0.15424073     0.31405702     0.53603065
Si     1.33166955     9.79641700     7.27684894     0.23292902    -0.29156774    -0.39092642
Si     7.05180348     4.22575227     1.57243388     0.42478767     0.18891415     0.11993083
Si     6.93433900     4.05646930     7.25779939     0.43101892    -0.11713593    -0.20107141
Si     6.99027027     9.87404191     1.53773552     0.16980143     0.18459946    -0.01807315
Si     7.03396302     9.71405776     7.27995298    -0.01294513     0.13307005    -0.03368077
Si    11.40375879    11.17404922     3.01778959    -0.22709486    -0.04473915    -0.61594474
Si    11.44319789    11.16533540     8.65578180    -0.29982105     0.46910369     0.57670760
Si    -0.12460115     5.44710290     2.88930405     0.42803890     0.51089865     0.25828165
Si    -0.11855982     5.51900568     8.60302621     0.31131852    -0.07422583     0.32450044
Si     5.60384678    -0.02216587     2.96132900    -0.09486394    -0.21965094    -0.31383729
Si     5.64398404    11.21791577     8.67407755     0.14683247     0.30385199    -0.16436705
Si     5.50132245     5.72361912     2.92030202     0.29764563    -0.59743541    -0.09718190
Si     5.70180252     5.60602052     8.58704778    -0.37325615     0.12115881     0.46700740
Si     1.28565774     1.27737975     4.27889327     0.42917562     0.00828188     0.52452731
Si     1.47772735     1.35222385    10.09779076    -0.26436618    -0.03617525     0.09770560
Si     1.23760039     7.01324614     4.37509342    -0.03315396    -0.26217949    -0.43184811
Si     1.39406542     7.01842229    10.18912024     0.03257681    -0.07967336    -0.32443094
Si     6.98891680     1.34708764     4.39473384     0.17307636    -0.35445070     0.14911455
Si     7.09197963     1.32359851    10.15261449     0.29997578    -0.03662026     0.05452072
Si     7.00768074     6.90624321     4.38090421    -0.10036418     0.24036497     0.16873342
Si     7.16780362     6.84794295    10.22565964    -0.07600881     0.47665277    -0.23717441
Si    -0.01461995     2.67677665     0.18080591     0.04714655     0.42920724    -0.71609378
Si    -0.18927663     2.62210601     5.72818227     0.40408853     0.10666102     0.38245085
Si     0.06219769     8.51089770    11.60540261    -0.01115701     0.01151874     0.08559625
Si    11.28991821     8.31480435     5.81534572    -0.23534839     0.19069999     0.27094355
Si     5.80444075     2.94151964    23.38582131    -0.61969721    -0.42917562    -0.42158049
Si     5.47909837     2.77903975     5.73890307     0.24513595    -0.30983919     0.11725844
Si     5.83270509     8.44838807    11.57326372    -0.17356455     0.41078785     0.24574146
Si     5.59255415     8.32002357     5.82137119    -0.20971550     0.24368450    -0.04717039
Si     4.09716716     4.19470413     4.26244482     0.10804266     0.29764736     0.48212892
Si     4.40909232     4.29417085    10.15298859    -0.30305806    -0.34875965     0.00902151
Si     4.20055662     9.84284842     4.33363319     0.07674951    -0.09264141     0.03123455
Si     4.35359790     9.86866183    10.18597603    -0.31167138     0.01904307    -0.10893010
Si     9.86734485     4.12988690     4.29071586     0.04683820    -0.62284505     0.39154378
Si    10.01364970     4.09765363    10.08588394     0.00083778     0.12177902     0.28255540
Si     9.83429743     9.75204245     4.39319655     0.22472733     0.09787479     0.00665605
Si     9.93224827     9.81845055    10.24364044     0.38756090    -0.15958405    -0.74883336
Si     2.89099968     0.15682193    -0.04936666     0.04924617    -0.86570960    -0.03054199
Si     2.80317217    11.18695559     5.72850414    -0.72580957     0.26522321     0.22845888
Si     2.83365208     5.78707163    -0.04006874    -0.13413891    -0.12954667     0.37946212
Si     2.59783740     5.53988280     5.73445128     0.46818671    -0.08630500     0.41805321
Si     8.37636280    11.34238880     0.14538809     0.91075444    -0.00262079     0.08680090
Si     8.42793111    -0.20302725     5.81208208     0.02041392     0.03406379     0.12701243
Si     8.51269882     5.62437937     0.12529781     0.15641794     0.27223754     0.30811685
Si     8.36883619     5.37439371     5.80403877     0.15683006     0.45307735    -0.25897294
Si     4.32111597     1.49617747     1.40470875    -0.19531775    -0.19197479     0.35780507
Si     4.12549413     1.22901335     7.12584271     0.49328962     0.31871909     0.63975847
Si     4.17965373     7.20476385     1.50706156    -0.10254297    -0.17396171    -0.33643594
Si     4.03061606     6.97512125     7.23670498     0.63908821    -0.04893079    -0.03081135
Si    10.04193930     1.22427903     1.57788258    -0.55257213     0.09450830    -0.06964768
Si     9.95769612     1.13284205     7.23311134    -0.29595774     0.45316890    -0.01003156
Si     9.97951300     6.99863480     1.68744498    -0.38858154     0.32640886    -1.03096902
Si     9.76067666     6.80689935     7.18921925     0.61620086     0.40212327     0.20154721
Si     2.77684645     2.76636440     2.91313007    -0.05550899    -0.18303499    -0.49652445
Si     2.90960011     2.76536603     8.74501903    -0.06323635    -0.22254138    -0.29348192