12
Lattice="3.56605 0.00000 0.00000 0.03285 3.48362 0.00000 0.28380 -0.17089 11.44866" Properties=species:S:1:pos:R:3:force:R:3 pbc="T T T" energy=-44795.80375 virial="-232.0910 -1.3981 9.1768 -1.3981 -221.3340 -6.7082 9.1768 -6.7082 -249.3810"
Au     0.26766646     3.26469092     3.56702951     0.14920100     1.08388503    -8.71721316
Au     3.55514001     1.70258175     9.41539642     0.95157712    -4.77833183   -11.41194973
Au     1.99663912     1.58939541    11.11230305    -1.79243410    -0.03777841    12.44089506
Au     2.07922978     3.32528682     5.23242981    -0.61705340     0.98119351     9.44265221
Au     3.80007986    -0.14515332    10.74049186    -1.29198805     4.50635553    13.07886228
Au     2.07421477     1.60140966     3.53824684     0.22997200    -0.34443070    -9.63238431
Au     1.96452025     1.68659855     7.26595962    -0.22346406     0.13132890    -4.40502255
Au     0.32679049     1.58465725     5.26360140    -0.89521057    -0.78068423    10.53963116
Au     1.83100797    -0.00599150     9.18449752     3.46806082    -0.29637834   -12.80448437
Au     1.88532113     3.44766124     1.55732521    -0.13313413     0.60344449     2.81741196
Au     3.66122425    -0.04541953     7.37628102     0.61652178    -0.62725730    -0.24992718
Au     3.61432573     1.76239047     1.46410839    -0.46254544    -0.44115711    -1.09798989
12
Lattice="3.56605 0.00000 0.00000 0.03285 3.48362 0.00000 0.28380 -0.17089 11.44866" Properties=species:S:1:pos:R:3:force:R:3 pbc="T T T" energy=-44795.8008 virial="-231.9910 -1.2847 9.2513 -1.2847 -220.9830 -7.0352 9.2513 -7.0352 -250.1120"
Au     0.26428946     3.26294754     3.57255845     0.15962678     1.28215318    -8.50012522
Au     3.55237914     1.71120900     9.40848251     0.73147748    -5.22813468   -11.28638033
Au     1.98760381     1.58449985    11.11454976    -1.43696332    -0.08808612    12.24613279
Au     2.08621029     3.31895455     5.24043642    -0.72445374     0.99914669     9.62867737
Au     3.79251323    -0.14180043    10.73134105    -1.40658936     4.86097647    13.45071434
Au     2.06810336     1.59598346     3.53364334     0.37705151    -0.41169728    -9.66864173
Au     1.97161577     1.68265488     7.25762654    -0.27412816     0.03489181    -4.69132175
Au     0.33161302     1.58709381     5.25623137    -0.96841648    -0.89029651    10.38943987
Au     1.82791891    -0.01220554     9.18454911     3.65535965    -0.21577900   -12.70905444
Au     1.87564441     3.43922895     1.56623129    -0.03779854     0.55333577     2.63813421
Au     3.67079583    -0.04481371     7.38524072     0.55413267    -0.53552868    -0.12103469
Au     3.61925461     1.76981706     1.46679793    -0.62936193    -0.36134842    -1.37576757
12
Lattice="3.56605 0.00000 0.00000 0.03285 3.48362 0.00000 0.28380 -0.17089 11.44866" Properties=species:S:1:pos:R:3:force:R:3 pbc="T T T" energy=-44796.00136 virial="-231.2620 -1.2068 9.1421 -1.2068 -219.7990 -7.1595 9.1421 -7.1595 -250.8440"
Au     0.26096443     3.26146535     3.57639292     0.14866491     1.46767511    -8.11924985
Au     3.54977816     1.71876185     9.39940652     0.52839701    -5.48731609   -10.93005598
Au     1.97834346     1.57961723    11.11917477    -1.03118844    -0.12809452    11.81528915
Au     2.09300629     3.31285645     5.25027456    -0.81715097     1.00914339     9.63443734
Au     3.78471844    -0.13751865    10.72487405    -1.45742634     5.02556409    13.57402710
Au     2.06210324     1.59051025     3.52717953     0.51511830    -0.46433021    -9.53677257
Au     1.97861405     1.67874231     7.24842840    -0.32780308    -0.05843868    -4.94770021
Au     0.33621669     1.58934146     5.25093619    -1.03757194    -0.97739378    10.06367345
Au     1.82556290    -0.01842346     9.18211780     3.73231087    -0.15601496   -12.36182245
Au     1.86601991     3.43095669     1.57559785     0.07620647     0.50791467     2.45884133
Au     3.68041671    -0.04431623     7.39412159     0.49072277    -0.44837179    -0.01970675
Au     0.05797626     1.77712732     1.46920218    -0.82110378    -0.29031975    -1.63078723
12
Lattice="3.56605 0.00000 0.00000 0.03285 3.48362 0.00000 0.28380 -0.17089 11.44866" Properties=species:S:1:pos:R:3:force:R:3 pbc="T T T" energy=-44796.38772 virial="-229.9720 -1.1588 8.8623 -1.1588 -217.8390 -7.0737 8.8623 -7.0737 -251.5740"
Au     0.25772078     3.26029187     3.57858854     0.11444307     1.63022582    -7.57766961
Au     3.54732094     1.72512880     9.38834898     0.35190005    -5.54484468   -10.33746713
Au     1.96902878     1.57478677    11.12602366    -0.58992854    -0.15741862    11.17055392
Au     2.09953621     3.30705076     5.26183037    -0.89215153     1.01697666     9.45441446
Au     3.77676334    -0.13232748    10.72114785    -1.43981678     4.98323127    13.43934247
Au     2.05629794     1.58503314     3.51896381     0.64114060    -0.50137230    -9.23903459
Au     1.98543816     1.67488012     7.23841358    -0.38320695    -0.14926635    -5.15425645
Au     0.34054601     1.59136363     5.24768091    -1.09623556    -1.03938478     9.56819929
Au     1.82396963    -0.02457359     9.17732177     3.70463217    -0.11119054   -11.77681968
Au     1.85656210     3.42291369     1.58529460     0.21261001     0.47550883     2.27223943
Au     3.68998116    -0.04391376     7.40285849     0.42266776    -0.36662894     0.04719132
Au     0.06251687     1.78426580     1.47125146    -1.04626944    -0.23553834    -1.86367322
12
Lattice="3.56605 0.00000 0.00000 0.03285 3.48362 0.00000 0.28380 -0.17089 11.44866" Properties=species:S:1:pos:R:3:force:R:3 pbc="T T T" energy=-44796.92447 virial="-228.2290 -1.1406 8.4393 -1.1406 -215.2480 -6.7977 8.4393 -6.7977 -252.2740"
Au     0.25458464     3.25946450     3.57926111     0.05137776     1.76842735    -6.88210577
Au     3.54499645     1.73025598     9.37558364     0.21747396    -5.41508719    -9.55585119
Au     1.95984522     1.57005302    11.13485223    -0.13052311    -0.17582172    10.33853588
Au     2.10572172     3.30159454     5.27491012    -0.94382953     1.02625229     9.10882476
Au     3.76873924    -0.12630939    10.72011841    -1.36888819     4.74870608    13.07041894
Au     2.05076943     1.57960327     3.50917786     0.74748718    -0.52448186    -8.78476047
Au     1.99200855     1.67109074     7.22766575    -0.43853480    -0.24098756    -5.30312290
Au     0.34454939     1.59313160     5.24636147    -1.14140879    -1.07404057     8.92250202
Au     1.82313463    -0.03058332     9.17037478     3.59142129    -0.08377670   -10.99654953
Au     1.84739436     3.41517437     1.59517546     0.37693691     0.46207163     2.08047841
Au     3.69937557    -0.04359278     7.41137453     0.34871226    -0.29036751     0.06198906
Au     0.06673565     1.79117081     1.47288643    -1.31223406    -0.20327649    -2.06031693
12
Lattice="3.61843 0.00000 0.00000 -0.01360 3.49130 0.00000 -0.30441 0.33342 11.67159" Properties=species:S:1:pos:R:3:force:R:3 pbc="T T T" energy=-44804.4056 virial="-207.1710 -3.7931 -0.9523 -3.7931 -192.5180 1.9650 -0.9523 1.9650 -219.1930"
Au     0.05170728     3.42894734     3.62948930    -0.40136731     1.54418563    -7.96714507
Au     3.10942399     2.11879775     9.60381021     0.06511048    -2.22442040    -9.30924932
Au     1.41882834     2.07438104    11.33614477     0.00728199     0.17456990    10.49620628
Au     1.79284116     3.56494108     5.33528768     0.37588853     0.30587727     8.12605872
Au     3.32107591     0.32883782    10.94169100    -1.26552596     2.05346500    11.23387752
Au     1.90118587     1.75431911     3.58994139    -0.55544393     0.47294930    -8.68125917
Au     1.59604716     2.00969361     7.39752719    -0.15206797     0.05335002    -4.45022094
Au     0.03116968     1.81509262     5.35935560    -0.33703662    -1.54145395     9.52338697
Au     1.38539219     0.38807799     9.36238681     2.30190460    -0.47391780   -10.73687190
Au     1.77277934     3.51800934     1.58655682    -0.01420682    -0.02960810     2.77515873
Au     3.33592858     0.27547598     7.53187139     0.14714750    -0.27375455     0.23687180
Au     3.56707868     1.81332325     1.49389265    -0.17212234    -0.06110786    -1.24681533
12
Lattice="3.61843 0.00000 0.00000 -0.01360 3.49130 0.00000 -0.30441 0.33342 11.67159" Properties=species:S:1:pos:R:3:force:R:3 pbc="T T T" energy=-44804.41047 virial="-206.9340 -3.6990 -0.9214 -3.6990 -192.3190 1.6610 -0.9214 1.6610 -219.8970"
Au     0.04827634     3.42724906     3.63509172    -0.38658358     1.77146592    -7.80602219
Au     3.10657627     2.12767520     9.59710231    -0.08225188    -2.63825867    -9.24860705
Au     1.40996936     2.06950629    11.33820095     0.26131103     0.12000760    10.46990810
Au     1.79991895     3.55854264     5.34316529     0.33286471     0.36869646     8.25383145
Au     3.31351187     0.33195040    10.93235944    -1.35490624     2.37899873    11.50458542
Au     1.89499751     1.74897298     3.58543108    -0.44481455     0.34795687    -8.65147394
Au     1.60314967     2.00574230     7.38918969    -0.19730766    -0.06061516    -4.67076148
Au     0.03604690     1.81745465     5.35188601    -0.42611778    -1.67685363     9.37868825
Au     1.38218888     0.38184656     9.36264096     2.48952183    -0.40236817   -10.59822324
Au     1.76311428     3.50951503     1.59545876     0.12724846    -0.02010819     2.62438225
Au     3.34545418     0.27611644     7.54087878     0.06479497    -0.17798920     0.28848598
Au     3.57203602     1.82078707     1.49656762    -0.38353513    -0.01107860    -1.54427014
12
Lattice="3.61843 0.00000 0.00000 -0.01360 3.49130 0.00000 -0.30441 0.33342 11.67159" Properties=species:S:1:pos:R:3:force:R:3 pbc="T T T" energy=-44804.55957 virial="-206.2250 -3.6860 -0.9869 -3.6860 -191.4310 1.4426 -0.9869 1.4426 -220.6590"
Au     0.04479110     3.42590731     3.63913469    -0.37331893     1.97531437    -7.51297846
Au     3.10373010     2.13598241     9.58862931    -0.20179536    -2.97009365    -9.05086689
Au     1.40121620     2.06468512    11.34228957     0.52082291     0.07555686    10.27984802
Au     1.80701799     3.55225581     5.35260646     0.28575512     0.44170480     8.23410350
Au     3.30572995     0.33550843    10.92533285    -1.40448695     2.61985557    11.63174752
Au     1.88876053     1.74372789     3.57925871    -0.32718770     0.21889570    -8.48814281
Au     1.61016972     2.00180358     7.37999139    -0.24563615    -0.17309121    -4.85667208
Au     0.04081072     1.81947452     5.34629461    -0.52505141    -1.78081542     9.08636203
Au     1.37949167     0.37557506     9.36082332     2.61867467    -0.34854047   -10.28179647
Au     1.75353384     3.50106933     1.60481829     0.28061503    -0.00247349     2.47510637
Au     3.35493352     0.27671816     7.54988681    -0.02355670    -0.08502975     0.31291015
Au    -0.04154352     1.82820257     1.49892439    -0.60427289     0.02918950    -1.83048034
12
Lattice="3.61843 0.00000 0.00000 -0.01360 3.49130 0.00000 -0.30441 0.33342 11.67159" Properties=species:S:1:pos:R:3:force:R:3 pbc="T T T" energy=-44804.8422 virial="-205.1120 -3.7453 -1.1502 -3.7453 -189.9130 1.3303 -1.1502 1.3303 -221.4820"
Au     0.04128791     3.42497061     3.64165371    -0.36488858     2.14513743    -7.08600492
Au     3.10088931     2.14358199     9.57852957    -0.29425128    -3.20613176    -8.69626061
Au     1.39270150     2.05995422    11.34831258     0.78074740     0.04119627     9.93618480
Au     1.81406131     3.54615338     5.36350042     0.23640917     0.52902582     8.05964867
Au     3.29779697     0.33952002    10.92067769    -1.41009386     2.75603374    11.59719989
Au     1.88255771     1.73860756     3.57153294    -0.20164278     0.08817531    -8.19071605
Au     1.61703198     1.99789296     7.36999309    -0.29402949    -0.28656841    -4.99003329
Au     0.04539780     1.82111652     5.34255731    -0.62807509    -1.85127602     8.64971453
Au     1.37734583     0.36933412     9.35703532     2.69226709    -0.30480335    -9.79664299
Au     1.74415813     3.49275553     1.61451229     0.45217854     0.03020407     2.32502740
Au     3.36425970     0.27729393     7.55881448    -0.12190095     0.00603062     0.29966641
Au    -0.03688528     1.83550751     1.50088836    -0.84664234     0.05296166    -2.10675930
12
Lattice="3.61843 0.00000 0.00000 -0.01360 3.49130 0.00000 -0.30441 0.33342 11.67159" Properties=species:S:1:pos:R:3:force:R:3 pbc="T T T" energy=-44805.23612 virial="-203.6910 -3.8636 -1.4039 -3.8636 -187.8660 1.3277 -1.4039 1.3277 -222.3840"
Au     0.03780411     3.42447289     3.64273743    -0.36743924     2.27815176    -6.53364139
Au     3.09806456     2.15036626     9.56700710    -0.35128065    -3.34121500    -8.21527031
Au     1.38455648     2.05535277    11.35610283     1.03493324     0.01696078     9.44788693
Au     1.82096948     3.54031000     5.37567355     0.19120707     0.62849103     7.75327530
Au     3.28979497     0.34396167    10.91838529    -1.38224644     2.78275199    11.41753849
Au     1.87647517     1.73363578     3.56242126    -0.07812217    -0.04012947    -7.77159068
Au     1.62366114     1.99402733     7.35928635    -0.34329583    -0.40281152    -5.06196680
Au     0.04974559     1.82235827     5.34058906    -0.72934654    -1.88613762     8.08913058
Au     1.37577585     0.36319449     9.35144967     2.72176990    -0.27391351    -9.16870260
Au     1.73511066     3.48466108     1.62440706     0.64477057     0.08475949     2.17065443
Au     3.37332280     0.27785607     7.56757084    -0.22919488     0.09476352     0.23708100
Au    -0.03251044     1.84263510     1.50239439    -1.11272310     0.05480137    -2.36524942
12
Lattice="4.04360 0.00000 0.00000 0.00338 3.88061 0.00000 -0.04422 0.41903 12.85021" Properties=species:S:1:pos:R:3:force:R:3 pbc="T T T" energy=-44840.90709 virial="-43.9137 -0.5831 1.6431 -0.5831 -34.6853 -0.5150 1.6431 -0.5150 -70.6968"
Au     0.15304452     3.82778147     4.00114963    -0.07189579     0.31627828    -2.58213692
Au     3.71152246     2.41453149    10.56707965    -0.07330702    -1.29969957    -3.04587813
Au     1.88441385     2.35997911    12.47511850    -0.42136391    -0.02704821     4.78253994
Au     2.15040142     3.97833376     5.86783791     0.00094788    -0.03389709     2.61976285
Au     3.98261732     0.40539070    12.04128639    -0.43767349     1.26851166     3.24977080
Au     2.23386375     1.96868754     3.95555454     0.02119800     0.36087398    -3.14530220
Au     1.98023942     2.26935718     8.14502610     0.06406870    -0.06048507    -1.73319429
Au     0.18956566     2.04585777     5.91466963     0.05217485    -0.57665113     3.48023839
Au     1.79553239     0.46481634    10.32093234     1.08121385    -0.04784253    -4.50382263
Au     2.05677770     3.91168188     1.74933402     0.00524285    -0.14893651     1.07227073
Au     3.92932792     0.35688012     8.28359774    -0.13419397     0.08430902     0.48001676
Au     4.03480730     2.02943359     1.65444092    -0.08711485     0.16517767    -0.67476949
12
Lattice="4.04360 0.00000 0.00000 0.00338 3.88061 0.00000 -0.04422 0.41903 12.85021" Properties=species:S:1:pos:R:3:force:R:3 pbc="T T T" energy=-44840.90493 virial="-43.9273 -0.5287 1.6577 -0.5287 -34.6963 -0.6398 1.6577 -0.6398 -70.9466"
Au     0.14964585     3.82596289     4.00727963    -0.06359172     0.40241957    -2.54146453
Au     3.70866118     2.42349954    10.56098538    -0.12551895    -1.42906459    -3.06191723
Au     1.87551287     2.35508461    12.47661491    -0.34958903    -0.05510364     4.78624198
Au     2.15744248     3.97190204     5.87517607    -0.01290477    -0.03357048     2.70873679
Au     3.97513440     0.40842638    12.03117261    -0.47829999     1.42734936     3.34348594
Au     2.22773188     1.96333044     3.95158660     0.04423274     0.31552344    -3.17251401
Au     1.98736311     2.26539472     8.13695479     0.05471693    -0.10290477    -1.83901192
Au     0.19448102     2.04831432     5.90660798     0.03031631    -0.61265928     3.43524017
Au     1.79220948     0.45862666    10.32179715     1.13368565    -0.06052024    -4.46471180
Au     2.04711454     3.90317588     1.75806913     0.00183116    -0.20091564     1.03765779
Au     3.93882595     0.35755566     8.29262895    -0.13938499     0.11950779     0.54044262
Au    -0.00382911     2.03691959     1.65717193    -0.09653522     0.22943157    -0.77199827
12
Lattice="4.04360 0.00000 0.00000 0.00338 3.88061 0.00000 -0.04422 0.41903 12.85021" Properties=species:S:1:pos:R:3:force:R:3 pbc="T T T" energy=-44840.92546 virial="-43.8825 -0.5060 1.6510 -0.5060 -34.6169 -0.7400 1.6510 -0.7400 -71.2570"
Au     0.14625571     3.82423412     4.01287541    -0.05816432     0.48679257    -2.48602534
Au     3.70579301     2.43213319    10.55433055    -0.17418505    -1.54472911    -3.05488572
Au     1.86659844     2.35020949    12.47903703    -0.27411550    -0.08059857     4.76736634
Au     2.16443764     3.96550339     5.88299813    -0.02521480    -0.03228775     2.77733108
Au     3.96760414     0.41172217    12.02177426    -0.51118736     1.57142842     3.40828722
Au     2.22164643     1.95806797     3.94702338     0.06947000     0.26926400    -3.18468920
Au     1.99445360     2.26143656     8.12857398     0.04663399    -0.14688754    -1.93834909
Au     0.19937201     2.05063606     5.89926703     0.00923799    -0.64604910     3.37134000
Au     1.78912850     0.45246328    10.32178451     1.17537011    -0.07579809    -4.40045414
Au     2.03751127     3.89468304     1.76695312     0.00372531    -0.25237859     1.00696479
Au     3.94823824     0.35825037     8.30171009    -0.14554371     0.15563800     0.59916503
Au     0.00108711     2.04440428     1.65973532    -0.11141224     0.29291927    -0.86718960
12
Lattice="4.04360 0.00000 0.00000 0.00338 3.88061 0.00000 -0.04422 0.41903 12.85021" Properties=species:S:1:pos:R:3:force:R:3 pbc="T T T" energy=-44840.9683 virial="-43.7713 -0.5118 1.6250 -0.5118 -34.4341 -0.8088 1.6250 -0.8088 -71.5879"
Au     0.14290577     3.82262628     4.01790274    -0.05342958     0.57095450    -2.42079918
Au     3.70293456     2.44033525    10.54718282    -0.21518328    -1.64625825    -3.03306373
Au     1.85776618     2.34539279    12.48234938    -0.19990592    -0.10327575     4.72234426
Au     2.17132159     3.95919571     5.89124139    -0.03854135    -0.02635203     2.82793394
Au     3.96008891     0.41527344    12.01318148    -0.53758423     1.69690964     3.46871040
Au     2.21566697     1.95293783     3.94191024     0.09689356     0.22334435    -3.18090186
Au     2.00144541     2.25751000     8.11994361     0.03541350    -0.18865300    -2.03032098
Au     0.20419047     2.05279689     5.89269322    -0.01471198    -0.67791687     3.29566720
Au     1.78632290     0.44637883    10.32091637     1.20489506    -0.09329683    -4.30980663
Au     2.02805467     3.88627020     1.77589790     0.01202583    -0.29956547     0.97634923
Au     3.95747919     0.35896480     8.31076973    -0.15774800     0.18969222     0.64156104
Au     0.00590695     2.05183218     1.66209112    -0.13284165     0.35289337    -0.95661900
12
Lattice="4.04360 0.00000 0.00000 0.00338 3.88061 0.00000 -0.04422 0.41903 12.85021" Properties=species:S:1:pos:R:3:force:R:3 pbc="T T T" energy=-44841.0322 virial="-43.5899 -0.5438 1.5776 -0.5438 -34.1506 -0.8471 1.5776 -0.8471 -71.9561"
Au     0.13962524     3.82116725     4.02234169    -0.05165293     0.65207940    -2.34404308
Au     3.70010249     2.44802331    10.53961802    -0.24918687    -1.72969355    -2.99328198
Au     1.84910548     2.34067076    12.48649717    -0.12418094    -0.12262536     4.65247626
Au     2.17803419     3.95303308     5.89983592    -0.04989016    -0.01745570     2.85951837
Au     3.95264852     0.41906871    12.00546485    -0.55657084     1.79932749     3.50872304
Au     2.20984863     1.94797307     3.93630297     0.12502889     0.17743499    -3.16196973
Au     2.00827762     2.25364039     8.11112561     0.02472626    -0.22983831    -2.10700521
Au     0.20889137     2.05477503     5.88691398    -0.03801395    -0.70740816     3.20713575
Au     1.78381737     0.44042117    10.31923448     1.22446390    -0.11106063    -4.19744299
Au     2.01882552     3.87799963     1.78481877     0.02924210    -0.33926638     0.94472374
Au     3.96646960     0.35969894     8.31973790    -0.17055430     0.22235258     0.67367773
Au     0.01058633     2.05915157     1.66420562    -0.16355907     0.40520066    -1.04204965
12
Lattice="3.92806 0.00000 0.00000 -0.03920 3.92155 0.00000 0.32887 0.11903 13.10312" Properties=species:S:1:pos:R:3:force:R:3 pbc="T T T" energy=-44841.25151 virial="-40.6009 -2.1796 3.1386 -2.1796 -43.2473 -1.4841 3.1386 -1.4841 -68.2070"
Au     0.24527332     3.76675864     4.07485324    -0.01755110     0.19074920    -2.57966202
Au     3.89897365     2.18293165    10.78263403     0.00133389    -1.44371714    -2.76652599
Au     2.17296071     2.08642533    12.71649213    -0.58546984     0.00716178     5.44524429
Au     2.21642614     3.88138025     5.97162509    -0.13550021     0.14281912     2.73841435
Au     4.23315569     0.12533741    12.28625807    -0.90038167     1.38001830     3.35413203
Au     2.25976068     1.89120794     4.03638157     0.10947799     0.08109251    -3.23558288
Au     2.14378527     2.08892876     8.31713579     0.17868603    -0.06335197    -2.00490031
Au     0.33948823     1.92979716     6.03117407     0.01676505    -0.43624478     3.70795579
Au     2.03800511     0.22923966    10.52602419     1.66014285    -0.02177458    -5.69353697
Au     2.00364692     3.91385046     1.78586207     0.17277078    -0.04873724     1.29463968
Au     4.04859054     0.14384193     8.45357878    -0.20854605     0.08669419     0.49031422
Au     3.94200255     2.00793364     1.67510239    -0.29256967     0.12574379    -0.75061475
12
Lattice="3.92806 0.00000 0.00000 -0.03920 3.92155 0.00000 0.32887 0.11903 13.10312" Properties=species:S:1:pos:R:3:force:R:3 pbc="T T T" energy=-44841.24835 virial="-40.6549 -2.1397 3.2004 -2.1397 -43.1798 -1.6246 3.2004 -1.6246 -68.4916"
Au     0.24187998     3.76492776     4.08098348    -0.00610125     0.24589556    -2.50309107
Au     3.89611969     2.19188559    10.77656713    -0.07519533    -1.58126275    -2.77562782
Au     2.16404365     2.08153417    12.71805346    -0.49415277    -0.00074492     5.41598621
Au     2.22345383     3.87496584     5.97897487    -0.14647864     0.14298316     2.86935700
Au     4.22562742     0.12838401    12.27615452    -0.96417622     1.50904638     3.47467168
Au     2.25363746     1.88582342     4.03240478     0.13760350     0.05555716    -3.30190649
Au     2.15092019     2.08496602     8.30903787     0.17035163    -0.08206019    -2.14847618
Au     0.34440011     1.93226746     6.02313473    -0.01712255    -0.46131990     3.62864376
Au     2.03473892     0.22305252    10.52677244     1.74653520    -0.01440997    -5.67399601
Au     1.99400018     3.90535428     1.79461896     0.16292058    -0.06488577     1.27496389
Au     4.05808128     0.14451769     8.46261100    -0.21471405     0.10290205     0.58865128
Au     3.94694809     2.01541577     1.67782597    -0.30008089     0.14848136    -0.84843130
12
Lattice="3.92806 0.00000 0.00000 -0.03920 3.92155 0.00000 0.32887 0.11903 13.10312" Properties=species:S:1:pos:R:3:force:R:3 pbc="T T T" energy=-44841.27327 virial="-40.6326 -2.1307 3.2298 -2.1307 -43.0113 -1.7474 3.2298 -1.7474 -68.8242"
Au     0.23850635     3.76315618     4.08658702     0.00184558     0.30020254    -2.41120928
Au     3.89326861     2.20047551    10.76999540    -0.15109558    -1.70645779    -2.75826541
Au     2.15508497     2.07667299    12.72066313    -0.39730117    -0.00796684     5.36045823
Au     2.23040963     3.86861887     5.98683989    -0.15511389     0.14219208     2.97822568
Au     4.21795718     0.13170663    12.26679192    -1.01519910     1.62658699     3.56032800
Au     2.24757883     1.88048291     4.02780748     0.16688930     0.02942590    -3.35397588
Au     2.15804446     2.08101165     8.30057012     0.16489658    -0.10240815    -2.28732369
Au     0.34927841     1.93463244     6.01585372    -0.04902217    -0.48477332     3.52830079
Au     2.03183401     0.21690067    10.52640774     1.81576496    -0.00937013    -5.62132845
Au     1.98444466     3.89689774     1.80357098     0.16037553    -0.08014024     1.26164582
Au     4.06747165     0.14520940     8.47170258    -0.22141518     0.12055808     0.68478986
Au     0.02374710     2.02288084     1.68036705    -0.31500148     0.16991497    -0.94201555
12
Lattice="3.92806 0.00000 0.00000 -0.03920 3.92155 0.00000 0.32887 0.11903 13.10312" Properties=species:S:1:pos:R:3:force:R:3 pbc="T T T" energy=-44841.32586 virial="-40.5147 -2.1487 3.2280 -2.1487 -42.7243 -1.8439 3.2280 -1.8439 -69.1536"
Au     0.23518436     3.76146992     4.09163650     0.00802119     0.35409311    -2.30603472
Au     3.89043149     2.20860301    10.76298723    -0.21917639    -1.81300777    -2.71773995
Au     2.14618524     2.07188417    12.72427548    -0.30173022    -0.01260284     5.27495912
Au     2.23722952     3.86239604     5.99516446    -0.16465576     0.14297991     3.07096516
Au     4.21020614     0.13529502    12.25826398    -1.04978179     1.72424713     3.62173853
Au     2.24164476     1.87522932     4.02262789     0.19763751     0.00582032    -3.38863768
Au     2.16509247     2.07709748     8.29178634     0.15537992    -0.11996823    -2.42034887
Au     0.35407300     1.93686720     6.00936948    -0.08237566    -0.50655179     3.41666960
Au     2.02932635     0.21084053    10.52495549     1.86305127    -0.00925722    -5.53332973
Au     1.97506560     3.88855419     1.81263223     0.16279990    -0.09358031     1.24867952
Au     4.07667619     0.14591404     8.48078910    -0.23322268     0.13654981     0.76422172
Au     0.02846848     2.03026544     1.68268632    -0.33697062     0.19063907    -1.03015780
12
Lattice="3.92806 0.00000 0.00000 -0.03920 3.92155 0.00000 0.32887 0.11903 13.10312" Properties=species:S:1:pos:R:3:force:R:3 pbc="T T T" energy=-44841.40429 virial="-40.3060 -2.1894 3.1920 -2.1894 -42.3245 -1.9158 3.1920 -1.9158 -69.5093"
Au     0.23194319     3.75989244     4.09611903     0.01042753     0.40818793    -2.19056147
Au     3.88761964     2.21618558    10.75562011    -0.27967975    -1.90437407    -2.66379071
Au     2.13743945     2.06720717    12.72882290    -0.20260574    -0.01417854     5.15973837
Au     2.24385480     3.85634937     6.00388496    -0.17084300     0.14553131     3.14482685
Au     4.20243680     0.13913162    12.25064071    -1.07087455     1.80300036     3.66605369
Au     2.23589055     1.87010221     4.01691583     0.22742838    -0.01865256    -3.40671271
Au     2.17200240     2.07325348     8.28274355     0.14534883    -0.13655732    -2.53675005
Au     0.35873724     1.93895057     6.00370145    -0.11536730    -0.52795802     3.29220296
Au     2.02723922     0.20492319    10.52246662     1.89330090    -0.00978337    -5.41517631
Au     1.96594185     3.88039160     1.82171902     0.17647665    -0.09910070     1.23291537
Au     4.08561596     0.14662829     8.48980678    -0.24361029     0.15116012     0.82769853
Au     0.03301197     2.03751076     1.68475080    -0.37021662     0.20209804    -1.11070052
12
Lattice="4.56346 0.00000 0.00000 0.14114 4.36362 0.00000 -0.45244 -0.09873 14.34339" Properties=species:S:1:pos:R:3:force:R:3 pbc="T T T" energy=-44844.18435 virial="26.1990 0.3999 0.8995 0.3999 31.2498 -0.5207 0.8995 -0.5207 -7.4405"
Au     0.18612966     4.12081622     4.46201859    -0.15620210    -0.31664534    -0.35261334
Au     3.93305656     2.23215191    11.79633792    -0.30457836    -0.59939932    -0.02896477
Au     1.80812830     2.09880153    13.91441158    -0.17099932    -0.07492016     2.13566868
Au     2.37462429     4.21637683     6.54980842    -0.06407075    -0.05990634     0.47948676
Au     4.11717720    -0.07124455    13.44973808     0.06049285     0.55609596    -0.42348911
Au     2.46298498     2.03387618     4.41434222     0.23847834     0.22887626    -0.83789255
Au     2.05258358     2.18927754     9.08918495     0.14235093     0.04426101    -0.83288513
Au     0.09555817     2.02917869     6.60495834     0.23134227    -0.03302689     0.83379793
Au     1.70943215     0.07818055    11.53250021     0.26841871     0.16472588    -1.60560788
Au     2.40314290     4.32353829     1.96176148     0.03918695    -0.13998219     0.58322108
Au     4.16934341     0.00899877     9.25455744    -0.22207093     0.02127380     0.52901651
Au     4.56429783     2.20596395     1.83306751    -0.06298295     0.20907200    -0.48113720
12
Lattice="4.56346 0.00000 0.00000 0.14114 4.36362 0.00000 -0.45244 -0.09873 14.34339" Properties=species:S:1:pos:R:3:force:R:3 pbc="T T T" energy=-44844.20164 virial="26.1687 0.4038 0.9012 0.4038 31.1541 -0.5609 0.9012 -0.5609 -7.4942"
Au     0.18272274     4.11893563     4.46836701    -0.14793470    -0.30224195    -0.30871902
Au     3.93017263     2.24118857    11.79053923    -0.30852569    -0.61188901    -0.04874964
Au     1.79925185     2.09390233    13.91564867    -0.17295598    -0.08350234     2.15738691
Au     2.38165897     4.20994257     6.55693689    -0.06721746    -0.08225901     0.54405802
Au     4.10974307    -0.06827868    13.43926443     0.05212666     0.60950510    -0.42502391
Au     2.45687440     2.02850614     4.41060034     0.23172598     0.21983636    -0.86840412
Au     2.05971494     2.18532534     9.08120184     0.13910055     0.03387853    -0.90381954
Au     0.10049107     2.03168850     6.59663741     0.23347454    -0.01777287     0.77520198
Au     1.70602961     0.07201168    11.53364896     0.26593508     0.13783526    -1.58409562
Au     2.39348306     4.31503316     1.97044867    -0.00017362    -0.19498546     0.58888535
Au     4.17883284     0.00966813     9.26359345    -0.20914059     0.03207061     0.59460830
Au     4.56926586     2.21345425     1.83581749    -0.01654577     0.26130015    -0.51994562
12