128
Lattice="11.641 0.000 0.000 0.000 11.659 0.000 0.000 0.000 23.168" Properties=species:S:1:pos:R:3:forces:R:3 energy=-666.43908691 virial="-213.52587891 -0.66158956 1.42419517 -0.66158956 -215.32279968 -1.53960419 1.42419517 -1.53960419 -207.91427612"
Si     1.56745088     4.43758319     1.36988288    -0.18839464     0.00516417     0.03305009
Si     5.74203157     8.75248766    11.48498921     0.34386587     0.05306786     0.67756349
Si     5.80666334     2.89744996    17.32046961    -0.07178976    -0.08053048     0.02105908
Si     5.95751523     2.88275629    11.49062854    -0.39067233     0.01503625     0.23006675
Si    -0.05448412     8.71458595    17.43399208     0.46516794    -0.05686854    -0.21121709
Si     0.05788958     8.80984295    11.73124583     0.10713616    -0.00589718    -0.32957667
Si    -0.09356846     2.79496827    17.32524515     0.56970763     0.32643288     0.44841152
Si     0.00588786     2.91547071    11.61615281     0.25176406    -0.03741411     0.00526076
Si     7.26083679     7.16604708    21.61427831    -0.33356908     0.32903188     0.35789561
Si     7.22752507     7.31478457    15.91153473     0.28229600    -0.28797647     0.21989842
Si     7.17226556     1.46798156    21.71556400     0.10122875    -0.01639427     0.23079382
Si     7.20073375     1.44613422    15.88355461    -0.04065538    -0.04434207    -0.07259315
Si     1.46607365     7.42997314    21.77175094    -0.03157287    -0.11456027     0.07530683
Si     1.57919844     7.28994864    15.98876584    -0.95485294    -0.07121617    -0.24456270
Si     1.40901333     4.29245383    18.77402083    -0.29775798     0.57926059     0.20487590
Si     1.33579646     1.54378883    21.67665930     0.15762627     0.06682986    -0.15564194
Si     5.83467767     5.71767013    20.13076801     0.02122884     0.39459658     0.31032768
Si     5.77328081     5.78329091    14.46185038     0.18776587     0.36787066    -0.17920026
Si     5.70734280    11.79371580    20.27404652     0.13895954    -0.33114603     0.00386322
Si     5.69482543    11.63970098    14.38057049     0.43395242    -0.02735180     0.65092754
Si     0.04186600     5.95334064    20.35380243    -0.15047231    -0.48121780    -0.46337444
Si    -0.02860386     5.88901417    14.46777872     0.41875190    -0.27456921     0.51721668
Si    -0.07634692    11.55302464    20.33667106     0.14166029     0.38173735    -0.08908008
Si    -0.02274410    11.73781687    14.51294290     0.47142076    -0.12645032     0.28561157
Si     7.24992148    10.34655617    18.92132996    -0.26184213    -0.54881704    -0.46834546
Si     7.19461524    10.22850794    13.05805776     0.20613810    -0.23200244    -0.52564937
Si     7.30433549     4.27033338    18.71646522    -0.10399102     0.11275110     0.35210377
Si     7.25388289     4.35480377    13.03108535     0.10001802    -0.22064954     0.01574620
Si     1.41390106    10.10406187    18.88580870    -0.03684853     0.58478737    -0.19176896
Si     1.58547965     1.41140189    16.04339835    -0.69170034     0.01366911    -0.68375796
Si     1.54850072    10.37648148    13.14732529    -0.24743697    -0.60978281    -0.48493382
Si     5.82775739     8.70999169    17.48109953    -0.12154193     0.16419214    -0.19681512
Si     8.76738433     5.78615297    17.41643405    -0.18519214     0.24581517    -0.29525024
Si     8.68095823     2.83758767    20.28620981     0.24860562     0.27704772    -0.25655520
Si     8.67620786     2.91883601    14.51755330     0.11744524     0.09301494    -0.14139250
Si     2.87350951     8.89718229    20.38902498     0.10329259    -0.63459480    -0.36282963
Si     2.95369206     8.64760961    14.44858311    -0.01208088     0.38466668     0.15176293
Si     2.89832835     3.02193064    20.19812692    -0.08939080    -0.53715569     0.35284775
Si     2.95011085     2.85036154    14.49380116    -0.04220426     0.33660954     0.31082502
Si    10.19334905     7.26839797    18.89137441    -0.19073251     0.18030952    -0.19863781
Si    10.22189483     7.29221883    13.02170556    -0.39226776    -0.05136889     0.02885142
Si    10.21129996     1.35377935    18.89006816    -0.56478852     0.26312307    -0.37701088
Si    10.16907658     1.50588394    13.08777522    -0.05819884    -0.20218912    -0.26030669
Si     4.24795942     7.28954783    18.88492118     0.45618024     0.02602440     0.00969056
Si     4.31831078     7.21957328    12.89861558     0.19461630     0.01143312     0.44874325
Si     4.28281724     1.49670921    18.77244713     0.22594956    -0.05553085     0.02258397
Si     4.45749962     4.41770927    21.67978510    -0.39795703    -0.24250600    -0.11741273
Si     4.39980832     4.36545059    15.91519197    -0.39716816    -0.01124666     0.15576985
Si     8.71513687     5.65721085    11.56821139     0.52574837     0.85160768     0.22348168
Si     8.63685415    11.71639374    17.33950042     0.50565660    -0.37970629     0.25388610
Si     8.76023579    11.61151025    11.59529725    -0.05601320     0.34286481     0.22070526
Si     2.84602182     5.80914224    17.45814206     0.39531481    -0.10412856    -0.39249030
Si     2.90386330     5.67126191    11.58703444    -0.06745100     0.40177828    -0.07845721
Si     2.95844347    11.54116669    17.34639003    -0.23756585     0.04644043     0.46546781
Si     2.95558025    11.78640259    11.53356709    -0.08790042    -0.22573224     0.17513108
Si    10.03429338    10.24870622    21.81693837     0.19442868    -0.38940710    -0.31573480
Si    10.24741547    10.20216493    15.92228095    -0.62922025     0.10124938     0.07824589
Si    10.10982074     4.47866727    21.61372022    -0.00934331    -0.32318634     0.67715502
Si    10.17392409     4.39672090    15.93130801    -0.05697362    -0.20162025    -0.09697797
Si     4.30492962    10.34340723    21.75628894     0.04959054    -0.09539413    -0.03245777
Si     4.38802482    10.04558820    15.94312890    -0.00620368     0.43445855    -0.19324225
Si     4.38817640     1.53015199    13.00162007     0.07332777    -0.18978408    -0.32175279
Si     1.44609501     4.32990347    13.16746304    -0.02133220     0.02260915    -0.57877666
Si     8.75302983     8.73457990     8.74009013     0.12290721    -0.06148694     0.29521313
Si     8.81542313     8.70925112     3.04781552    -0.19985673    -0.01097113    -0.58035594
Si     0.07897160     8.77766133     5.86912632    -0.37925982    -0.22848377    -0.04215614
Si    -0.04659962     8.87862271     0.05610585     0.05014287    -0.43264449    -0.17607227
Si     0.00921250     2.90217956     5.62927491    -0.01583479    -0.13697973     0.39646852
Si    -0.06648886     3.04829389    -0.07023030     0.05016600    -0.23451039     0.09496833
Si     7.33794689     7.28563971    10.29347473    -0.30262798    -0.12088662    -0.97895062
Si     7.28733058     7.22776493     4.35910195    -0.18554585     0.12234804    -0.05646281
Si     7.43551443     1.43786908    10.05328454    -0.18567480     0.22539251     0.21685037
Si     7.37345589     1.33691042     4.28853377    -0.21146718     0.03505643     0.55092597
Si     1.46249863     7.31267215    10.22463813     0.18959703    -0.24747740    -0.18170348
Si     1.39153002     7.13684222     4.47799165     0.41464216     0.58041054    -0.59673774
Si     1.50286904     1.52428545    10.06507491     0.21593709     0.26380011     0.41662240
Si     1.44367839     1.42500463     4.20186118     0.23498470     0.35319012     0.43960643
Si     6.01098576     2.77173243     5.82783936    -0.46448106     0.33693385    -0.26932600
Si     5.81495430     5.85979697     8.69464751     0.29792839    -0.01436353     0.06064398
Si     5.94027023    11.71956920     8.63489479    -0.29957017    -0.41711712     0.10818868
Si     5.79415540    11.62478112     2.87331802    -0.00776487    -0.32332525    -0.02960093
Si     0.11410802     5.90030870     8.56831485    -0.53641313    -0.23743930     0.64382958
Si     0.01809229     5.78934480     2.83960240     0.02422418    -0.01006206     0.21203524
Si     0.11493433    11.73852680     8.73578106    -0.37100089    -0.49337143    -0.14540464
Si    -0.05023310    11.70831003     2.81981416     0.01055505    -0.14307606     0.12698954
Si     7.32993290    10.13526284     7.25423031    -0.07163883     0.24739750     0.02511698
Si     7.25139280    10.02926731     1.49220559    -0.10512370     0.52354997     0.06453982
Si     7.27953122     4.42951195     7.22140662     0.21798733    -0.17190127     0.17246270
Si     7.11921531     4.29801216     1.48055149     0.55239683     0.08614562     0.03412945
Si     1.53616372    10.15656843     7.33618158    -0.10969300     0.30863321    -0.09363363
Si     1.44566488    10.24899925     1.44569680    -0.21629107     0.21488330    -0.00463000
Si     1.38188529     4.33176142     7.13506067     0.72927201     0.23064515     0.12541844
Si     5.75244857     5.75168784     2.93386544     0.23132709     0.37252665    -0.08769730
Si     5.77318222     8.71577428    -0.04510513     0.13453224     0.03491649     0.05431157
Si     5.76708877     2.88137279     0.02632570    -0.19120498     0.02557934    -0.20420846
Si     5.80290695     8.69296161     5.76290920     0.09215663     0.19868165     0.04576971
Si     8.81384317     3.05473971     8.66805134     0.12502660    -0.57240194    -0.08756584
Si     8.70882351     5.85375559     5.78595523     0.23295917    -0.25738174     0.01294417
Si     8.66683017     2.83394768     2.89425115     0.09132553     0.32606846    -0.21600096
Si     2.96247946     8.70359083     8.79056322    -0.08399808     0.19518141    -0.36896491
Si     2.81835363     8.75742149     2.94147396     0.11704805    -0.19382015    -0.09038244
Si     2.99539708     3.00445704     8.59661916    -0.34272662    -0.54329842     0.03547813
Si     3.01796114     2.96322802     2.87704743    -0.53474796    -0.35909706    -0.06084196
Si    10.15115829     7.30314087     7.25963355     0.32640535     0.07506510    -0.10083639
Si    10.25118208     7.29749671     1.43297909    -0.46531147    -0.05437594     0.32863379
Si    10.30450649     1.52118981     7.25279081    -0.14718623     0.01894095     0.02225137
Si    10.09354492     1.49913156     1.38736959     0.09579024    -0.14048317    -0.02566937
Si     4.36239883     7.25730346     7.21274888     0.09591692     0.08360713     0.37130967
Si     4.32721224     7.36440876     1.44450525     0.12380661    -0.30500057     0.19665897
Si     4.42322851     1.44102659     7.20984737     0.07723089     0.12841429     0.05699432
Si     4.26243090     1.41151824     1.42715940     0.47890145     0.33633399     0.01174115
Si     8.59780339     5.77430388     0.06061697     0.47347349     0.22593471    -0.40356234
Si     4.50370379     4.21812765     4.40528644    -0.33078903     0.37475348     0.01702923
Si     8.85821974    11.66758219     5.94301235    -0.33630845    -0.14264901    -0.58896714
Si     8.53266867    11.61113763     0.04859654     0.45028216     0.23278570    -0.07239322
Si     2.99789835     5.74902879     5.82545591    -0.32266909    -0.14361705    -0.21549094
Si     3.05619688     5.95060269    -0.10913075    -0.62832314    -0.22045419     0.39134616
Si     2.89062950    11.68324686     5.83370160     0.13574693    -0.25231326    -0.34191769
Si     2.77468797    11.82711393    -0.07248642     0.22777146    -0.62839019     0.36475170
Si    10.25588723    10.20417924    10.24462707     0.04536238     0.05130765    -0.41406393
Si    10.23555516    10.27149915     4.43620112     0.18439414    -0.27090910    -0.13578814
Si    10.33338499     4.35680014    10.10820677    -0.38318706     0.34423888    -0.02484760
Si    10.13911606     4.30034863     4.29298219     0.02222390     0.35024881    -0.11883898
Si     4.37572058    10.28897033    10.09866532     0.18930900    -0.10066994    -0.02840165
Si     4.31212696    10.20074795     4.31851148     0.10800119    -0.00361841     0.28046060
Si     4.44212263     4.31792325    10.07124065    -0.10465055     0.24026787     0.18352431
Si     8.71485829     8.76600459    14.45025963     0.02197845    -0.06168801     0.18404585
Si     8.65190887     8.72195638    20.25534842     0.27787352     0.18828276     0.30088949
128
Lattice="10.370 0.000 0.000 0.000 10.253 0.000 0.000 0.000 21.394" Properties=species:S:1:pos:R:3:forces:R:3 energy=-663.93444824 virial="256.29598999 9.81031990 -12.63917351 9.81031990 268.51202393 16.82904243 -12.63917351 16.82904243 239.34428406"
Si     1.27497578     3.85477314     1.20112932     0.37289834     0.27045792     1.54659867
Si     5.26914326     7.63628089    10.82130613    -1.29639387    -0.96872902    -1.74891293
Si     5.05592476     2.46237669    15.94108887     0.77137172     0.87708199    -0.02942763
Si     5.17175385     2.54585625    10.51550767     1.22316694    -0.12324356     0.81272686
Si     0.02692087     7.70719911    16.01340477    -1.23244905     0.69392717     1.08129966
Si     0.18425144     7.70630773    10.71757598    -1.34990394    -0.98633420     0.02697472
Si    -0.00464198     2.52845646    16.18438537     0.02722020    -0.41718268    -0.33351910
Si     0.07726979     2.59810587    10.75550633    -1.65945148    -0.06391177    -0.18357691
Si     6.20681408     6.46377186    20.14110394     2.27508497    -1.69503939    -2.66221690
Si     6.51169962     6.36640318    14.74441556    -1.18714929     1.02102971     0.24336362
Si     6.43618041     1.26142613    20.06423328    -0.81091988     1.10727596    -0.73317266
Si     6.46965647     1.21363797    14.66117737     0.43977892     0.27302462     0.83745193
Si     1.18559175     6.50949782    20.13383746     0.20096508    -0.23266906    -1.26203752
Si     1.10694758     6.41274297    14.66043608     2.60861182     0.46114814     0.48221767
Si     1.05406722     4.16096887    17.33544970     1.15231705    -1.38672495     0.78056681
Si     1.11370990     1.45398870    20.00178537    -0.50614679    -1.67056847     1.91760230
Si     5.21994976     5.07247005    18.66015768    -0.09381153    -0.56650674     1.10212839
Si     5.27176549     5.25122918    13.33489778     0.01540179    -2.23992252     0.57962132
Si     5.07908352    10.28250351    18.65563779     0.30546525     0.09464739     0.53060520
Si     5.22734625    10.17057275    13.39892603    -0.39305842    -0.35140660    -1.31716549
Si    -0.25182371     5.24898389    18.82728833     0.27473450     0.38495630    -0.15585276
Si     0.07294113     4.92920063    13.53685847    -0.94237566     0.27687114    -2.13366342
Si    -0.14524477    10.35926124    18.77850745    -1.36434245    -0.34197044    -0.49963313
Si     0.05834695    10.16454006    13.45202794    -1.16268897    -0.76436722    -1.12225246
Si     6.26469890     8.88714763    17.32541859     1.05430818     1.31770897     1.37278438
Si     6.59257199     8.92511723    11.90765085    -0.23673841     1.38256955     1.20604134
Si     6.43711777     3.80194781    17.29394506     0.08440571    -0.35210794    -0.50992620
Si     6.60243929     3.90262567    12.00871524    -0.35787416    -0.20860817    -0.73271012
Si     1.13321189     9.10795478    17.42691244    -0.12673299    -1.72570944     1.06069851
Si     1.21880267     1.28746169    14.65575459     1.04911423     0.20234723     1.88230312
Si     1.40486982     8.99890755    11.94132916     0.05754218     0.39079475     1.82110739
Si     5.10422755     7.65012630    16.06216092    -0.02825194    -0.96411240    -1.94792271
Si     7.76519735     5.17604658    16.00509985     0.72026253    -1.70221043     0.51623565
Si     7.79981290     2.61546419    18.68738379    -1.69122875    -0.20923080     0.66306949
Si     7.79970753     2.49671999    13.37536272    -0.37624282     0.38185072    -0.24410444
Si     2.58386128     7.66463004    18.70585349    -0.57049990     0.84451354     0.13322602
Si     2.62135365     7.68040120    13.38805382    -0.69091463    -0.31667420    -0.06365688
Si     2.53350624     2.37483100    18.76457647    -0.14614512     1.83697367    -2.58185554
Si     2.56304018     2.59807150    13.42642295     0.35922617    -0.72950655    -0.82110608
Si     8.88291187     6.54569762    17.34683524     0.97247499    -0.07108179     0.27832463
Si     9.15521453     6.52185200    12.23550030     0.96653241    -0.02107152     0.31567007
Si     8.74213871     1.31666261    17.24209774     2.34452724    -0.33608356     0.70686001
Si     9.11468998     1.26648499    12.04805190     1.45621860     0.40343159     1.03615463
Si     4.00729552     6.39175079    17.44906777    -2.05279636    -0.05157676    -0.26469731
Si     3.86722226     6.29260034    12.09301161    -0.70098758     1.01321316    -1.34098482
Si     3.79913160     1.27903522    17.30852768     0.15014517     0.17244980     0.51441741
Si     3.59599806     3.93262243    19.83530306     1.45956838     0.56225765     1.39508665
Si     3.79808652     3.91807070    14.71013226     1.52462292    -0.09057541    -0.71984446
Si     8.03242696     5.33109856    10.73594059    -2.19088435    -0.16085199    -0.05874792
Si     7.68481881    10.08384028    16.07810736    -1.59794688     0.90892488    -0.05119155
Si     7.84624585    10.36192287    10.76577224     0.05569621    -1.52909660    -0.95912814
Si     2.60912743     5.17942678    16.02299070    -0.93572688     1.13372540     0.63835377
Si     2.59545001     5.01971023    10.65411864     0.98896456     0.43526924     1.34543729
Si     2.56012236    10.11966288    16.18553952    -0.07999481     0.97685802    -2.20434451
Si     2.67702166    10.23881758    10.66247470    -0.13193141     0.59598446    -0.50763017
Si     8.88530408     8.92396869    20.10042100     0.89727914     0.61013961     0.25709820
Si     8.90637029     8.93510082    14.76451622     2.33711648    -0.13448079    -0.74755156
Si     8.85857540     3.88151689    20.12705863     1.77298987    -0.66196573    -0.65531129
Si     9.08900272     3.71121970    14.74587749    -0.78516781     0.21246618     0.80513740
Si     3.79986205     9.10440640    20.11217424    -0.16775365    -0.78305072     0.14939627
Si     3.87887637     8.95398147    14.74061215    -0.32188827     0.26647246    -0.06390983
Si     3.89813052     1.24747674    12.01085852     0.63262117     0.80213809     0.59506470
Si     1.33341600     3.84016326    11.99889334     0.17220804     0.29354405     1.31659484
Si     7.97017831     7.67033511     8.25305501    -0.34882614    -0.15150696    -2.24246025
Si     7.72977759     7.69969005     2.69641335    -0.04171974     0.33195156     1.38217151
Si     0.10265498     7.60797967     5.42468618     1.20355153     0.66179228    -0.06963672
Si    -0.16059896     7.58259010     0.09115692    -0.51459384     1.21957588     0.50141609
Si     0.07857832     2.57263463     5.28242336    -0.05657949     1.02429748    -0.29547393
Si    -0.06212138     2.68292017     0.04550634    -0.86845773    -0.03603057    -1.68159604
Si     6.47962468     6.41688426     9.20575663     0.78373003     0.58707988     3.09031868
Si     6.43100416     6.39608837     4.02226548     1.55068994     0.24788277     1.30320036
Si     6.80626215     1.26849258     9.21978588    -2.13618326     0.30217615     0.64823699
Si     6.46841908     1.02893238     4.12577476     0.29509529     0.66342866    -1.29911351
Si     1.44802728     6.36345578     9.44595265    -0.69158530     1.10291648    -1.20005798
Si     1.37688669     6.45136607     3.94547379    -0.64753294    -0.61798525     1.52129817
Si     1.45522680     1.51492394     9.48441107    -0.16464300    -2.08401632    -1.10232115
Si     1.42759724     1.34258490     4.00782663    -1.41812348    -0.78582090    -0.27079660
Si     5.32477943     2.56050255     5.32251072     0.16837531     0.19708586     0.14835396
Si     5.42860152     5.06583456     7.97610081    -2.02796602    -1.19575953    -0.42290306
Si     5.34850652    10.23310363     8.00246480     0.03808440     0.33524376     0.49740043
Si     5.12627188    10.00304999     2.72635381    -0.59929937     1.93880963     0.79593062
Si     0.05141242     5.13425707     8.16597949     1.62666845     0.45333868    -2.03524852
Si     0.16935693     5.14092956     2.66268404    -0.92501628     0.15653166    -0.67607033
Si     0.10745586    10.26600589     8.02668490     0.42466784     0.60097539     0.99343055
Si    -0.12324148    10.39175295     2.70857234     0.30355892     0.40136826     0.27571589
Si     6.69266385     8.96649106     6.77135967    -0.29886866    -1.27173281    -0.29601631
Si     6.38344556     8.87473709     1.43178191     1.34380341     0.31903386    -1.78123629
Si     6.69030521     3.72966008     6.75941832    -0.48940843     0.19905059    -1.25379872
Si     6.55186439     3.87904825     1.30052959    -1.96359289     0.23641163    -0.19093277
Si     1.45019114     9.05144300     6.68377272    -0.64339387    -0.73324406    -0.10780088
Si     1.10759555     9.07970106     1.36989834    -0.12084818    -1.04071641    -0.22857480
Si     1.45586274     3.88562892     6.58665233    -0.81435859    -0.30775252     1.09588051
Si     5.21225347     5.19904314     2.72358233    -0.18723679    -1.93707395    -0.64771163
Si     5.15143672     7.68357493     0.01424156    -2.90039062     1.82925320     1.90017807
Si     5.01084957     2.67539262    -0.06377848     0.39669031    -0.08335008    -0.11561150
Si     5.19896799     7.69520012     5.37296625     0.62732047    -0.18800141     1.27300286
Si     8.06536307     2.48447571     7.92209845    -0.06725352     1.94905400     1.85067320
Si     7.90007720     5.11249787     5.41328096    -0.00531461    -0.01839724    -1.02052462
Si     7.65459994     2.45690054     2.53434111     0.71075344    -0.65959901     1.60396695
Si     2.64936416     7.72893169     8.05236176     0.23680048    -0.23535696     0.27860272
Si     2.45762965     7.68600460     2.57855833     0.94299507     1.76733851    -0.17611067
Si     2.71196960     2.39406983     7.89212128     0.15513071     1.34366775    -0.25010672
Si     2.47271073     2.55788740     2.56056725     1.70320654     0.42306545    -0.24143635
Si     9.20324686     6.44346898     6.74795153    -0.78749859    -0.65694141     0.66633415
Si     8.89833211     6.32452716     1.51045815     0.98592097    -0.99773705    -1.29071653
Si     9.24794966     1.30522907     6.63512174     0.53968644    -1.76783752    -1.19732237
Si     9.03598010     1.31595298     1.12565841     0.21058495    -0.11679260     2.09407544
Si     3.95974256     6.34765335     6.81220363    -0.16819002    -0.09970015    -0.99068052
Si     3.83621512     6.35469604     1.47174227    -0.04151719     0.37171781    -1.79250407
Si     4.08967735     1.16939469     6.58361056    -0.42696196     0.10244948     0.05250512
Si     3.94764689     1.20718909     1.40018446    -0.39379153     0.27448991    -0.40033865
Si     7.64002554     5.18841779    -0.11511851    -0.22261839     1.33832979     1.42536569
Si     3.93883663     3.73018033     3.96171574     0.03389282     0.01095601    -0.53647816
Si     7.95630899    10.12993237     5.34800946     0.65019143     0.32591558     0.00549983
Si     7.66886716    10.32444663     0.04264770    -0.88575113    -1.95063591    -0.04293054
Si     2.68305970     5.11941177     5.19515949     0.60571676     0.61239219     0.77208662
Si     2.44937331     5.19463638    -0.00521734     1.57888055     0.52847457    -0.47064933
Si     2.64096337    10.26561182     5.25434238    -0.12909421     0.79077637     1.24982810
Si     2.40639635    10.32819484     0.07918972     0.42654455     0.69412434    -0.85259545
Si     9.18434221     8.97387364     9.44480310     0.72459590     1.43258071     0.78569084
Si     9.26719531     8.79178596     4.00011719    -0.95671427     0.68728793    -0.30035922
Si     9.16662117     3.97906794     9.44388416    -0.68030721    -2.36636615     0.04106042
Si     9.14395722     3.81543541     3.76934557    -0.94530833    -0.42137808     1.27737772
Si     4.00660046     9.02834216     9.35422989     0.40447867    -0.86420524     0.19144617
Si     3.81688309     8.88129823     4.12647861    -0.04530286    -1.16225600    -1.52400386
Si     3.84625540     3.90506740     9.28015938     1.08283019    -0.87644851    -1.36055613
Si     7.62369440     7.74932549    13.46003828     0.77290803    -0.60550070    -0.93859923
Si     7.58170525     7.74307890    18.73767203    -0.44754663    -0.57616264     0.28806287
128
Lattice="11.470 0.000 0.000 0.000 11.421 0.000 0.000 0.000 23.331" Properties=species:S:1:pos:R:3:forces:R:3 energy=-671.69836426 virial="-180.49639893 -0.51645029 0.84339434 -0.51645029 -175.43208313 -1.13896942 0.84339434 -1.13896942 -199.37048340"
Si     1.37727642     4.30898318     1.45627777     0.12430084    -0.10755685    -0.26710621
Si     5.77188642     8.46863127    11.66829475     0.37264189     0.39286032     0.29375070
Si     5.69135811     2.86658015    17.41670662    -0.18329799    -0.29739034     0.15242502
Si     5.86855425     2.88206833    11.63827412    -0.33808431    -0.13951527    -0.22024314
Si    -0.11608736     8.64578091    17.57730591     0.29441303    -0.34333515    -0.24646658
Si     0.07479934     8.48616376    11.70090865     0.42460850     0.46053290     0.00649798
Si     0.02192413     2.84172412    17.62793944    -0.49436361     0.09502788    -0.47597903
Si     0.03651182     2.87084416    11.70728514     0.50785536    -0.16775845     0.00118633
Si     6.97802303     7.21051252    21.85867907    -0.19297743    -0.13641615     0.38071859
Si     7.11834041     7.12267669    16.03442027     0.33969367    -0.35308009    -0.11102655
Si     6.98622995     1.52570972    21.84072100     0.24955931    -0.52328604     0.10666319
Si     7.15841989     1.38664589    16.03753520    -0.23744318     0.11385479    -0.31916299
Si     1.24232531     7.20386551    21.83832823     0.04871963     0.13237053     0.38741344
Si     1.40884802     7.18710262    16.04527332    -0.51234150    -0.05203423     0.12247405
Si     1.28251018     4.48864180    18.97207663    -0.00560535    -0.36132345     0.03698706
Si     1.25678199     1.38251041    21.94691884    -0.06188686     0.61469257    -0.66270345
Si     5.63578753     5.63258661    20.43641600    -0.14260742     0.53593868    -0.33846202
Si     5.81616974     5.60128106    14.54763373    -0.18929106     0.59843755    -0.14041959
Si     5.61651226    11.41754226    20.45949524    -0.34260026     0.08577948    -0.23392501
Si     5.78422214    11.37050821    14.51576902    -0.15601397     0.21468490     0.37878075
Si    -0.28417157     5.87561081    20.44532391     0.65169239    -0.43379858    -0.16089275
Si    -0.02428250     5.60226967    14.60946436     0.52706689     0.15684557     0.51096565
Si    -0.31273012    11.49577581    20.42938037     0.91787553    -0.33075982     0.20856127
Si     0.01500672    11.29780389    14.58991976     0.23968075     0.51019943     0.23694324
Si     6.94932553     9.94055810    18.97748964     0.18151207     0.13507791    -0.23310663
Si     7.22676789    10.01166912    13.09520857     0.16738662    -0.31845766    -0.10870532
Si     7.05457480     4.25359782    18.87247030     0.02196340     0.19588397     0.40562522
Si     7.27839160     4.30857325    12.98427519    -0.03227347     0.02177549     0.71424240
Si     1.26387302    10.02492273    19.07771166    -0.03316413     0.45368159    -0.54829997
Si     1.37217583     1.42762703    16.08659702     0.04249251     0.10355268    -0.37001765
Si     1.49207549     9.96151233    13.12579632     0.09952216    -0.00329849    -0.10716948
Si     5.58823279     8.49339230    17.36012328     0.12541130     0.33545852     0.73827249
Si     8.59927865     5.62240659    17.53928593    -0.39433306     0.50670350    -0.24098441
Si     8.38815994     2.89471696    20.40516948     0.49766973     0.01071058    -0.14660379
Si     8.61139811     2.80022580    14.53172749     0.22750734    -0.00577005     0.33110982
Si     2.72052780     8.63365760    20.42802933    -0.01936042    -0.32491276     0.02623370
Si     2.84895094     8.55205151    14.62290270     0.07617506     0.06851415    -0.28217292
Si     2.65847665     2.91417759    20.28826897     0.30972284    -0.24462053     0.68357313
Si     2.90091787     2.81626373    14.57881059     0.00136215     0.12686849     0.11536767
Si     9.86146841     7.26191664    18.95839066    -0.11382654    -0.31141436     0.07734206
Si    10.23132767     7.20047094    13.32830939    -0.91736358    -0.25145546    -0.81704861
Si     9.86167402     1.47166948    18.91662625    -0.17338766    -0.12815544     0.30254918
Si    10.20201932     1.39608776    13.21834367    -0.65792465     0.08460768    -0.49587399
Si     4.20869890     7.13937147    18.96261907     0.01246684     0.22642571     0.07228815
Si     4.32487264     7.15100000    13.16754462     0.24830058    -0.33757606    -0.01713377
Si     4.22688424     1.40498374    18.92338133    -0.26133826     0.35406017    -0.10303131
Si     4.10788651     4.31900761    21.83805498     0.01249872    -0.08743738    -0.21431875
Si     4.31527891     4.33010025    15.97527285    -0.34604198    -0.21258853     0.29226196
Si     8.68104836     5.90523424    11.75206039     0.47398689    -0.74330223    -0.07493458
Si     8.41685831    11.34807740    17.50842047     0.57095593     0.15833798    -0.01510461
Si     8.76298330    11.45230608    11.65062649    -0.32423618     0.08562827     0.32429647
Si     2.77187512     5.85795253    17.51322492     0.20792660    -0.69879836    -0.14318508
Si     3.00295578     5.71894597    11.67953887    -0.29767197    -0.25020555    -0.31007540
Si     2.72636650    11.45913359    17.45311768     0.39017949    -0.43399715     0.59282398
Si     3.01677324    11.40251858    11.65348239    -0.07508988    -0.03397670     0.09144753
Si     9.91155196     9.99440537    21.89834705    -0.52972305    -0.03382961    -0.05943941
Si    10.02329591     9.97015544    16.03505656    -0.44479382     0.15680033     0.26568139
Si     9.88658207     4.34490024    21.87276947    -0.28448921     0.01464233    -0.05999170