Created from lmp.config
64           atoms
1            atom types
  0.000000000000  11.087275714303 xlo xhi
  0.000000000000  11.344824827730 ylo yhi
  0.000000000000  11.127300537966 zlo zhi
 -0.015890782109  -0.295513089716   0.290687604743 xy xz yz

Masses

1             28.086000000000 # 14

Atoms # atomic

1            1              1.344924469344   4.091499999883   1.235101021227
2            1              1.178466319707   9.902553581239   6.798997413844
3            1              6.879405560490   4.098380243285   1.227325389778
4            1              6.734559914609   4.237255540875   6.789683821900
5            1              6.862640617258   9.764361573534   1.227103300010
6            1              6.721477577237   9.901724552734   6.803168220664
7            1             11.010854039958  -0.122412217498   2.622503730619
8            1             10.842991170041  11.371064772127   8.193931185963
9            1             -0.081758160696   5.541057541174   2.626074961958
10           1             -0.239522989362   5.692601576963   8.191530073886
11           1              5.477255689719  -0.121500115088   2.627856022664
12           1              5.311733381159  11.362436850850   8.191289296335
13           1              5.446606221049   5.551826121558   2.635604709634
14           1              1.200606931349   4.234239869688   6.799416141011
15           1              1.322563365791   9.758643624000   1.247312020289
16           1              5.308101192902   5.687523646236   8.197913369004
17           1              1.261884661684   7.005027782522   4.023729731064
18           1              1.114222264240   7.145264787612   9.576595985644
19           1              6.813476839834   1.324546353692   4.018603720495
20           1              6.670027205236   1.475594396941   9.580007543837
21           1              6.806523625242   7.000439602324   4.018309224319
22           1              6.654952178239   7.148713950664   9.573007074162
23           1             -0.002315716295   2.644147058559  -0.169062449935
24           1             -0.159136349441   2.786776008689   5.400955211857
25           1             -0.022590218254   8.321526734189  -0.158972793592
26           1             -0.159028793612   8.452173011747   5.399625093853
27           1              5.535295993942   2.643595452748  -0.152978756733
28           1              5.391734514826   2.778961600742   5.410679686608
29           1              1.266768490070   1.332519171725   4.017594778223
30           1              1.123075016825   1.473633686458   9.577373244902
31           1              5.517687124129   8.316992184075  -0.158204052124
32           1              5.384809927853   8.460258999321   5.400581838602
33           1              4.037986096652   4.170065796272   4.014776311652
34           1              3.878815335425   9.966012079068   9.583435432010
35           1              9.568345625292   4.175727041953   4.010277661565
36           1              9.430505256945   4.318982474953   9.576842071028
37           1              9.571563615276   9.844915735046   4.014322856042
38           1              9.419254908236   9.986301692590   9.582560983464
39           1              2.775906160011  -0.187688811082  -0.154959840685
40           1              2.612556986908  -0.058745646865   5.420316413605
41           1              2.758483835378   5.471674587834  -0.147368316845
42           1              2.605810140228   5.626316592556   5.416188601636
43           1              8.310456549729  -0.206984343244  -0.142357516263
44           1              8.162199709601  -0.057309815256   5.404305300287
45           1              8.298721846288   5.474624448693  -0.151222963061
46           1              3.888209431389   4.309948537175   9.577283073555
47           1              4.030174079150   9.839929756840   4.018343484310
48           1              8.146939139596   5.623976051328   5.408734130242
49           1              4.105447629438   6.931995390101   1.236139654065
50           1              3.961000984902   7.075012779407   6.804155542897
51           1              9.658938226063   1.256054645091   1.239915320164
52           1              9.513873163125   1.405039785919   6.798177232651
53           1              9.641988264608   6.934755775304   1.238969061258
54           1              9.495379470250   7.076498745444   6.797991206611
55           1              2.684707408592   2.717936964902   2.619409122648
56           1              2.548586762960   2.869494568368   8.191554340498
57           1              2.670140529568   8.386993858214   2.635398918937
58           1              2.540549134043   8.528556857425   8.183661904952
59           1              8.233830517136   2.720166705612   2.633015774099
60           1              8.085596503579   2.866113893286   8.188500541601
61           1              4.115679372271   1.253572680133   1.227062161396
62           1              3.966671780055   1.399066993808   6.796060180003
63           1              8.216838605448   8.391231380057   2.612760442672
64           1              8.070570838444   8.540404888011   8.183098750017
