128
Lattice="10.966 0.000 0.000 0.000 21.980 0.000 0.000 0.000 10.993" Properties=species:S:1:pos:R:3:forces:R:3 energy=-687.51062012 virial="-21.80171967 -2.55257559 -2.72140884 -2.55257559 -23.99538231 -4.83072090 -2.72140884 -4.83072090 -24.74839211"
Si     1.38473292     4.15833757     1.29595114    -0.36852196    -0.21384011     0.17493583
Si     5.50100879     5.45355501     2.83547469    -0.25922176     0.05150925     0.04770303
Si     1.42241267     4.08748111     6.93436247    -0.54137278    -0.04236187    -0.00036905
Si     1.36597077     9.50460755     1.32993453     0.00750731     0.54579502     0.03714585
Si     1.35930502     9.53363539     6.86829860    -0.12712616     0.53190619     0.13617301
Si     6.82210983     4.22228834     1.30449513     0.18415508    -0.65469956     0.55675912
Si     6.90808956     4.07235832     6.85599843    -0.14693072     0.07858512     0.28226575
Si     6.85612170     9.65253222     1.31396161    -0.07595108    -0.22733596     0.30982819
Si     6.86241956     9.76901384     6.98587219     0.16877952    -0.24741276    -0.64909863
Si    10.98326994    10.93168061     2.68154476     0.04949854     0.11581899     0.23269230
Si    11.04738620    11.03771166     8.24261645     0.14063673    -0.28693199    -0.19394040
Si     0.04679133     5.55192638     2.74404967     0.10053124    -0.39069748     0.01274468
Si    -0.11871746     5.38252116     8.31634569     0.51836449     0.15608735    -0.45392966
Si     5.59162109    -0.00126058     2.58209156    -0.50413746     0.32405561     0.43178701
Si     5.42715760     8.22330675    11.03910282     0.23437881     0.01790908     0.03173984
Si     5.34600602    11.09361074     8.22005952     0.60848105    -0.17540902     0.47156304
Si     5.46615150     2.77655149     5.43968796    -0.14058313    -0.23077592     0.59768987
Si     1.45784311     1.30056257     4.10014578    -0.51172894     0.63861060     0.02750810
Si     1.44031555     1.38894783     9.66330041     0.10596931    -0.66155291    -0.35489744
Si     1.41329044     6.92195163     4.12651160    -0.07444717    -0.56691152     0.29699132
Si     1.29197577     6.86376707     9.49694939     0.11744213     0.05301436     0.56281567
Si     6.76277585     1.43931301     4.07602764     0.50063431    -0.32422668    -0.14499034
Si     6.78183524     1.24135303     9.58038459     0.17441104     0.08188520     0.25387272
Si     6.83258001     6.90795744     4.19589119     0.15055409    -0.09127680    -0.17924979
Si     6.86207974     6.93282842     9.64833453    -0.05038004    -0.36087841    -0.13280059
Si     0.01792776     2.53262340     0.06494253    -0.21347931     1.10334384     0.28160214
Si     0.02115627     2.75112619     5.48756195     0.39454824    -0.07777600    -0.14026755
Si    -0.03345567     8.25622344    10.91095765     0.17069010    -0.33332783     0.22608685
Si    10.96324563     8.20280233     5.49251735    -0.03473210     0.18164662    -0.19697440
Si     5.51502163     5.43328036     8.29857473     0.15142432     0.40663460    -0.33792478
Si     5.49910354     2.74656744    -0.01326394     0.03876662    -0.09147792    -0.25655413
Si     5.55891004     8.33148836     5.62385899    -0.47275487    -0.15140224    -0.35037497
Si     8.19908295     2.64809228     8.37230915     0.19852671     0.50288332    -0.61634398
Si     4.11433494     4.08196408     9.60759376    -0.11461301     0.31021425     0.21987990
Si     4.02894877     9.62021353     4.23283085     0.42300206    -0.08799480    -0.34103882
Si     4.08189149     9.61329686     9.68833612    -0.11221333     0.46534356    -0.20068207
Si     9.65502035     4.08543614     4.04444500    -0.19375648     0.29829746     0.32910180
Si     9.58141265     4.03622113     9.79821912    -0.03520521    -0.19301206    -0.54764116
Si     9.61238333     9.57117910     4.02633234     0.08981748     0.13201553     0.55470216
Si     9.68317719     9.59773294     9.46968989    -0.55174333     0.17685002     0.49236846
Si     2.75513838    -0.13423761     0.01224025    -0.21844515     0.55285209    -0.00465253
Si     2.72754195    -0.03230060     5.52737654     0.15526870    -0.00167910     0.08600745
Si     2.67751249     5.60336767    -0.04888745     0.44938475    -0.70540959    -0.05053901
Si     2.72861217     5.51984140     5.64431651     0.06821971     0.05454496    -0.76007593
Si     8.25089630    10.94754116    -0.14013479     0.20655711     0.11148024     0.66786438
Si     8.06784139     0.07786492     5.55508195     0.70348883    -0.02129191    -0.08361099
Si     3.99146204     4.08167531     4.17666082     0.43417054     0.42348200    -0.24449795
Si     8.25085494     5.53487359     0.02124195     0.02335657     0.27110034     0.14227569
Si     4.10388050     1.36813298     1.26304374     0.08594412    -0.12019929     0.46075606
Si     4.17212240     1.26568929     6.87281838    -0.14386028     0.42377192    -0.32744923
Si     4.12449336     6.76438324     1.46195400    -0.11560436     0.54201847    -0.46128103
Si     4.15418677     6.89552386     6.91798204     0.04210293    -0.01285595     0.30782312
Si     9.50955146     1.26461299     1.46688672     0.57248360     0.09950455    -0.49279678
Si     9.64120288     1.43346143     6.88239800    -0.61622930    -0.35231021     0.07089239
Si     9.64475863     6.93129220     1.45340038    -0.33114654    -0.20356834    -0.66412604
Si     9.62057849     6.82374304     6.82151866    -0.30940586     0.02654370     0.48562184
Si     2.73057657     2.78097390     2.64829629     0.07817326    -0.39014614     0.37530488
Si     2.85247940     2.68844610     8.19794794    -0.47344965     0.03771944     0.39897364
Si     2.75659780     8.20783891     2.73456712     0.19953856     0.22814608     0.24511367
Si     2.72792225     8.29608106     8.28675075     0.22328851    -0.48305130    -0.21725565
Si     8.21311573     2.75744208     2.71838475    -0.26392955     0.19468856    -0.04523163
Si     8.26247713     5.48441359     5.46482015    -0.09970994    -0.24800733    -0.04239207
Si     8.20061008     8.24691587     2.74669360    -0.24775085     0.03013036    -0.08444476
Si     8.20815669     8.26205459     8.19860092     0.19804183    -0.16132021     0.04196128
Si     1.39012980    15.17105643     1.35725664    -0.41384202     0.01410311     0.35103279
Si     1.32317721    20.53644707     1.39359246     0.05941650     0.33085516     0.00676053
Si     1.33205143    20.60789709     6.99536669     0.19591586     0.07599810    -0.63793874
Si     6.79313250    15.10952487     1.40509956    -0.07288834    -0.18750998    -0.20474052
Si     7.06448784    15.12918745     6.98944770    -0.90534401    -0.05810073    -0.22577807
Si     7.01751874    20.61401276     1.28973199    -0.56379676    -0.43073183     0.14447142
Si     6.80600584    20.51791044     6.83963434     0.28214306     0.02212533    -0.01787792
Si    10.95377984    21.93774109     2.81661248    -0.01841243    -0.00802825    -0.09040418
Si    10.93661739    22.02794530     8.30207540     0.42762071     0.07658729    -0.26339322
Si     0.04761759    16.60046591     2.82311315    -0.20203248    -0.50086546    -0.68864363
Si    -0.05091812    16.53988556     8.24293248     0.29003340    -0.24291268     0.32598436
Si     5.48707287    10.93089360     2.82394255    -0.17888139     0.57016683    -0.06468822
Si     5.42340114    21.79689367     8.19695652     0.23912027     0.43241084     0.49433699
Si     5.22607350    16.47218747     2.57359770     1.04044187     0.19138597     1.01099563
Si     5.48675652    16.51348234     8.21805648     0.37981874    -0.23767224    -0.04078843
Si     1.28363784    12.39269048     4.12183607     0.03661742    -0.36185083    -0.17876685
Si     1.37040949    12.41395179     9.66107461    -0.18488282     0.17812565    -0.11911517
Si     1.40494213    17.86825191     4.15170102     0.02281715     0.68360674     0.45537645
Si     1.40166884    17.83093992     9.62610321    -0.24998069    -0.30839843    -0.08512557
Si     6.89121670    12.39852035     4.21996914    -0.27445862    -0.00710896    -0.40955412
Si     6.89892926    12.36821986     9.59658048    -0.40137663     0.01716328    -0.12462948
Si     6.74263193    17.83815242     4.06341678    -0.09693710    -0.18881287    -0.31893367
Si     6.86425623    17.78872580     9.63650508     0.28440127     0.15102126    -0.28744507
Si    -0.03712448    13.76885121     0.12353328     0.43331915    -0.19515476    -0.42657200
Si    -0.04512305    13.83025643     5.37701704     0.27775386     0.04427299     0.56156063
Si     0.01293965    19.17204559    10.97021942    -0.04633044     0.43535703    -0.17342854
Si    10.93866096    19.29235220     5.56583733     0.50976831    -0.09696914    -0.28275830
Si     5.44491049    13.66928670     0.03395095     0.24436647     0.24065039    -0.11652569
Si     5.55877636    13.97185432     5.50675090    -0.16991624    -0.88061512     0.11521403
Si     5.56532264    19.17475389    10.96537967    -0.25426465     0.10277747     0.72636092
Si     1.29431748    15.16560151     6.88951916     0.02142768    -0.33943233    -0.15337569
Si     5.44856755    19.24792532     5.38369013    -0.07150631     0.03366543     0.31744373
Si     4.19552670    15.11296275     9.57237619    -0.46870825    -0.42768866     0.03064579
Si     8.11368326    16.53506564     5.47419137     0.85460722     0.11263396     0.02455907
Si     4.16214392    20.74842082     4.07998914    -0.01167820    -0.40308356    -0.03439775
Si     4.14440092    20.49580767     9.71805374    -0.43849307    -0.17340827    -1.02204061
Si     9.56801817    15.22885742     4.07836275    -0.23890753    -0.17845602     0.06806992
Si     9.66740746    15.14339508     9.72312764    -0.44930309    -0.11636582    -0.39616269
Si     9.57046830    20.67715973     4.28396743    -0.36697772    -0.14926392    -0.54533714
Si     9.60661737    20.54551922     9.47053428     0.32962662    -0.21448538     0.69761181
Si     2.65243156    11.04321994     0.02813970     0.49202621    -0.46296611     0.10733050
Si     2.60033432    11.00243901     5.53593518     0.72166145     0.33099842    -0.12475133
Si     2.77503478    16.40364739    -0.06685483    -0.04809101     0.63454503     0.30406815
Si     2.70700051    16.48527711     5.58702569    -0.13383979     0.31809500    -0.37916720
Si     8.35639231    21.90356047    -0.13295272    -0.64637768     0.36899322     0.39401710
Si     8.35703406    10.99455704     5.45966813    -0.51263940     0.02281974     0.32923311
Si     8.20403527    16.46205381     0.07026678     0.26482335     0.14437155    -0.00181757
Si     4.01431821    12.36577535     1.45762913     0.35829294    -0.10057864     0.04277771
Si     3.99795394    15.21827960     4.14965527     0.32477289    -0.56767285    -0.23778638
Si     4.10031820    12.49404882     6.81091567    -0.11584750    -0.31670457    -0.23873147
Si     3.94776673    17.96943198     1.39831628     0.61354107    -0.30635631    -0.88713384
Si     4.11840325    17.87476295     6.80533462     0.17529929    -0.16007015     0.14955726
Si     9.60212400    12.32627220     1.40945201    -0.44409075     0.01542371    -0.30424863
Si     9.78523001    12.34725911     6.78519613    -0.68098247     0.15697232     0.19403882
Si     9.65552612    17.91383496     1.40387594    -0.63949007    -0.26872650     0.21360438
Si     9.63600305    17.90386109     6.84694040    -0.45740423    -0.64929110    -0.31284901
Si     2.59562662    13.78384990     2.79467279     0.78831017    -0.08013720    -0.05028724
Si     2.69769010    13.74044867     8.18263019     0.15350536     0.40710586     0.51802593
Si     2.76223609    19.35075165     2.81934494    -0.39115614    -0.35001549    -0.03548118
Si     2.68946332    19.09075096     8.16614846     0.51837128     0.88899529     0.73337418
Si     8.21017375    13.75358948     2.76739155     0.01922307    -0.04119183    -0.03184343
Si     8.43662931    13.63513223     8.27945807    -0.46750963     0.55966145    -0.00183303
Si     8.19815376    19.24856103     2.84997429     0.44213650     0.08599839    -0.37899047
Si     8.27810319    19.14954903     8.18046722    -0.80453956     0.30449137     0.30177146
128
Lattice="11.197 0.000 0.000 0.000 21.918 0.000 0.000 0.000 10.647" Properties=species:S:1:pos:R:3:forces:R:3 energy=-679.24462891 virial="-15.09050369 10.03643799 12.75623322 10.03643799 7.28391647 18.78196335 12.75623322 18.78196335 37.77858353"
Si     1.31314216     4.03317999     1.38370001     2.35972071     0.30288076    -0.27640909
Si     5.49992618     5.53523718     2.77308598     0.71507859     0.24198619    -0.94877005
Si     1.31359322     4.00360665     6.68309446     2.06004024    -0.11863680    -0.19921048
Si     1.40767212     9.61179078     1.33924061     0.01264565    -0.89665329     0.41906604
Si     1.51805546     9.64763241     6.58475534    -0.31989688    -0.50709134     0.11271631
Si     6.90178165     4.05377302     1.40861742     0.30212063     0.52469605    -0.39093322
Si     7.00471682     4.11722621     6.77061008     0.09159369    -0.27595228    -1.02240610
Si     6.87980945     9.72251067     1.42490762     0.14264080    -0.54915708    -0.10308120
Si     7.03297288     9.68317122     6.58538127    -0.32400337     0.01043840     0.86032647
Si    11.13165634    10.88605048     2.59612415    -0.35004151     0.39612126     0.11667187
Si    11.30556120    10.99079823     7.93917348    -0.57053459     0.45880592     0.34625280
Si     0.05649788     5.37020166     2.60663074    -0.93588686     1.48520827     0.48491555
Si     0.04138860     5.31145674     7.90082126    -1.05527234     0.84287918     1.65004814
Si     5.57893687     0.12248632     2.52743477     1.18349147    -0.86941063     0.48376676
Si     5.57871086     8.26124033    10.64105108    -0.03834141     0.43413132    -0.14335628
Si     5.62752098    11.14154151     8.09461384    -0.63198560    -0.89648330    -1.41652572
Si     5.66833851     2.71129365     5.47172330    -0.08823936     0.07431695    -1.26250839
Si     1.34660024     1.45450985     3.97293120     0.81632376    -1.11038756    -0.13114801
Si     1.51252138     1.08940231     9.32048895    -0.89944422     1.77181268     0.22663909
Si     1.41502114     6.68590530     4.03280491     0.44061524     0.86051345    -0.10101978
Si     1.39118369     6.75294031     9.34123119     0.31449527    -0.02173938    -0.61122620
Si     7.10817889     1.31860719     3.95521881    -0.65543330     0.78201419     0.12346455
Si     6.86518994     1.14529099     9.36816917     1.22948170     1.22621298    -0.70479262
Si     6.99606597     6.87758167     4.11245548    -0.44203162    -0.16808200    -0.22832400
Si     7.02289705     6.82904731     9.34298109     0.25039577     0.97914600     0.42666650
Si    -0.02821952     2.81941874     0.16110919    -0.10380781    -2.07088017    -1.77518129
Si     0.07902283     2.74936021     5.29729800    -1.60961115    -0.39428562     0.38164449
Si     0.01709974     8.17689122    10.61682624    -0.12966044     0.59325069    -0.19461583
Si    11.20241645     8.15054618     5.30238328     0.14110327    -0.17459041     0.59735656
Si     5.79171046     5.59062264     7.95078255    -0.86711496    -0.96009666     0.80868757
Si     5.63333758     2.67728277    -0.11114523    -0.27496445     0.43779510     0.71594989
Si     5.48460904     8.29291924     5.42753595     1.33843923    -0.38696146     0.02160498
Si     8.45555951     2.82641570     7.91041763    -1.17387724    -1.49792862     1.11052763
Si     4.31324093     4.13316430     9.23955508     0.06975383    -0.47830331    -0.30643409
Si     4.41570955     9.63169972     3.97429865    -1.84644103     0.30465963     0.69320452
Si     4.13114225     9.78135407     9.30839249     0.48646772    -1.05158889     0.04120038
Si     9.84555261     4.16168404     4.00822564     0.10974674    -1.00685596    -0.55546665
Si     9.71786062     3.93051169     9.37527583     0.79358006     1.67330146     0.29331124
Si     9.84209212     9.59832469     4.09132364    -0.65974170    -0.19643059    -0.67766392
Si     9.70720548     9.65146263     9.27090179     1.10945892    -0.49489492    -0.06913055
Si     2.81436126    -0.16123125     0.04257221     0.72137976    -0.00616956    -0.29350078
Si     2.87424884    -0.03452601     5.25282087     0.29964393     1.10974336    -0.82409006
Si     2.91626322     5.35057447    -0.09417027    -1.08398008     0.55347323     0.90389752
Si     2.91652814     5.45204712     5.42593030    -0.54218346    -0.15933976     0.15036570
Si     8.42293648    10.88826737     0.08090711    -1.32999539     0.27268404    -1.12854826
Si     8.45086958     0.07612820     5.38268614    -1.43218613    -0.83974236    -0.47367802
Si     4.21378020     4.13039977     3.97686083    -0.10836843    -0.91854382     0.77586192
Si     8.37223616     5.51882990     0.04548437    -0.16711612    -1.01905847    -0.17678839
Si     4.21305087     1.37013589     1.25737948    -0.30366823     0.01465499    -0.67763186
Si     4.22144204     1.31121318     6.61755395     0.05990516    -0.16645306     0.86751789
Si     4.14971843     6.88841777     1.24174189     0.24030432    -0.24582866     0.70108879
Si     4.33211916     6.86530396     6.85120223    -0.54651242    -0.25498170    -1.65121830
Si     9.90158016     1.20101201     1.25826968    -0.94171154     0.53183621     0.47477478
Si     9.65193562     1.32740359     6.73209819     2.14761353     0.68197268    -0.28760451
Si     9.75682245     6.88782901     1.23879148     0.31334072    -0.16158485     1.12798297
Si     9.74479012     6.65611026     6.68644886     0.23194459     0.72472811    -0.49432403
Si     2.86918543     2.63441319     2.62135680    -0.51668990     0.89690256     0.29794973
Si     2.80907471     2.64288101     8.08367761     0.14279431     0.14423881    -0.65367246
Si     2.92720119     8.27604947     2.79122374    -0.95773256    -0.50576860    -0.72444367
Si     2.88200395     8.13122402     7.94623836    -1.04284763     1.26366591     0.99147356
Si     8.46579032     2.75441340     2.59238293     0.10702459    -0.41090262     0.23730786
Si     8.34649987     5.28063209     5.26696667    -0.03257766     1.26342416     0.61211157
Si     8.26984575     8.21018105     2.66945542     0.76100218     0.38982147     0.16225721
Si     8.37897106     8.19777478     7.97232563     0.04276756     0.11082825    -0.22477189
Si     1.31765438    15.15641974     1.44313722     1.32359028    -0.82562828    -0.98030448
Si     1.28248921    20.67451830     1.36876345     0.13563319    -0.83148289    -0.19173449
Si     1.62647278    20.60306394     6.54264485    -0.88671052    -0.69005370     1.12559354
Si     6.86749210    15.05735777     1.33362978     0.45794734     0.35699621     0.20105550
Si     7.03314908    15.03611737     6.63206286     0.76021326     0.50263888    -0.84556031
Si     6.98859954    20.36057631     1.33970706     0.20888582     1.94661832     0.52171022
Si     6.99568337    20.46015662     6.51242492    -0.29464439     0.44479889     0.58615893
Si    11.10280247    21.84494464     2.82262633     0.48946249     0.76037180    -0.64460975
Si    11.32158270    21.90751829     7.81169675    -0.70937502    -0.46446514     0.81160307
Si    -0.03061657    16.48183165     2.60034477    -0.41317922     1.42502046     1.26940656
Si    -0.01887315    16.31663900     8.06494890    -0.65159345     0.55912268    -0.99035227
Si     5.52899861    11.19832248     2.81928719     1.38643193    -2.14176941    -0.19189131
Si     5.59721221    21.73207582     8.06482845    -0.44106340     0.03555250    -1.39101267
Si     5.56127921    16.43652779     2.74297797    -1.64568090    -1.12163031    -1.82783389
Si     5.79998878    16.30831198     7.99852155    -1.43833447     0.56864244     0.48979789
Si     1.24579764    12.30734186     3.88440203     0.59183013     0.92365742     0.52577055
Si     1.47114329    12.47779180     9.38877175    -0.22583105    -1.25279450    -0.04591943
Si     1.37804327    18.15960353     4.11653866    -0.00758676    -1.49628448    -0.88271749
Si     1.33365552    17.67855415     9.28323477     0.38654944     1.06899846     0.12319006
Si     6.93281182    12.41791612     3.99462741     1.37623072    -0.18057702     0.49700958
Si     7.00411732    12.45005518     9.26349260     0.74960953    -0.11252003     1.17499757
Si     6.79708759    17.79695312     3.82788546     2.21492195     1.75246072     1.18125987
Si     7.11244049    17.64746577     9.43282425    -0.76083481     0.78019083    -0.17016262
Si     0.03224484    13.69983085     0.04573311    -0.69218957     0.21285701     0.36806834
Si    -0.02904972    13.90744934     5.30457400    -0.72947478    -1.32280350    -1.00445616
Si     0.06512122    19.14937333    10.64538317    -0.48606914    -0.36778420     0.41364831
Si    11.15359278    19.43581781     5.46890473    -0.64250791    -0.99117678    -0.61090112
Si     5.53714025    13.67700401     0.03215108    -0.07317946    -0.20381723    -0.15195198
Si     5.67947102    13.66787360     5.33719206    -0.80457318     0.57705015     0.56453621
Si     5.63341391    19.13825335    10.76841816     0.43352112     0.05298550    -2.79736686
Si     1.31811248    15.08008233     6.62498224     0.79963040     0.84013277     0.37698522
Si     5.50594913    19.20092894     5.19723862     0.22001585    -0.32296044     0.32994387
Si     4.14439205    14.96193418     9.27865021     1.38620925     1.83620477     1.19594967
Si     8.39057732    16.55277596     5.10005299    -1.08165193    -0.48302138     0.75239933
Si     4.28428220    20.65314363     3.82692208    -0.56865633    -0.37092990     0.30865499
Si     4.13764208    20.29700258     9.16263640     1.59649086     1.65077448     2.48902035
Si     9.66749801    15.15549535     3.86962180     0.84301287    -0.44851956     0.05483192
Si     9.74771884    15.07590438     9.38883601     0.78959835     0.24240512     0.78056175
Si     9.60075364    20.61277736     4.00668430     1.64658725     0.13635153     1.13241673
Si     9.92284911    20.44861606     9.29529428    -0.94070143     0.56291860    -0.66707659
Si     2.83131126    10.96412877     0.18151245    -0.22585124     0.73639476    -0.85226130
Si     2.78601587    11.17150849     5.27470689     0.06693555    -1.22243595    -0.39414820
Si     2.77528054    16.49516278    -0.03137806    -0.01228026    -1.08527565     0.07573928
Si     2.73239014    16.50416126     5.31879943     0.35966843    -0.08770375    -0.02939408
Si     8.28583958    21.80606326    -0.00012566     1.10818172    -0.34276995    -0.08127335
Si     8.41451090    11.10866528     5.31755620     0.06453633    -0.39076960    -0.04352880
Si     8.48076660    16.42614712     0.18943734    -1.08079219    -1.05357814    -0.97006130
Si     4.25156110    12.28821257     1.51483888    -1.23572445     1.26838088    -2.13916993
Si     4.24372082    14.95934626     4.05860734    -0.41472992     1.18521690     0.12630183
Si     4.13885565    12.44540831     6.61826825     0.23107469     0.19512111     0.99812198
Si     4.25167478    17.83992851     1.10997156    -1.42913842    -1.04940116     2.62721467
Si     4.31792078    17.72016617     6.69347030    -0.44243324     0.24231318    -0.19440147
Si     9.61970639    12.29742243     1.27897714     1.45522666     0.70695603     0.79613698
Si     9.77262656    12.49895729     6.65445521     0.57502997    -0.37556899     0.19254120
Si     9.61625696    17.86458731     1.38160519     2.71610928    -0.03321607    -0.40490919
Si     9.74781398    17.68183479     6.54133132     0.44303846     1.22134089     1.11708045
Si     2.89972500    13.70664585     2.67913453    -1.37783170     0.08295800     0.14684699
Si     2.71051579    13.90057402     8.08198938    -0.44370937    -1.68284941    -1.75623703
Si     2.78012965    19.31560470     2.54510687     0.32236150    -0.53590691     0.21054780
Si     2.80937929    19.11168924     8.00440132    -1.27580309    -1.54586601    -1.59691715
Si     8.26827680    13.70565557     2.64441425     0.44396040     0.12265877    -0.27326450
Si     8.44181057    13.88735844     8.03821200    -0.46286312    -1.28172708    -0.53227091
Si     8.54191546    19.30384772     2.61316612    -2.28447509    -0.93259144     0.65499616
Si     8.21503663    19.12197189     7.97313933     1.54395831    -0.29357278    -0.04654389
128
Lattice="11.049 0.000 0.000 0.000 21.917 0.000 0.000 0.000 10.863" Properties=species:S:1:pos:R:3:forces:R:3 energy=-687.42822266 virial="-19.76822472 -3.50541258 -3.81638145 -3.50541258 -9.77255440 -3.21790361 -3.81638145 -3.21790361 0.53239208"
Si     1.50810591     4.02695568     1.38422162    -1.07694864     0.22833644    -0.07953010
Si     5.51338447     5.55094341     2.64769077    -0.11964796    -0.50285834     0.50023192
Si     1.50095008     4.02243006     6.79921903    -1.02316856     0.20495033     0.18066017
Si     1.37685403     9.56250679     1.45511427    -0.20248081     0.50042373    -0.46342117
Si     1.39399955     9.63872538     6.76526768    -0.15839785     0.01429597     0.17885172
Si     6.86938708     4.06982174     1.40025334     0.22096255    -0.08438528     0.02260320
Si     6.89042471     4.07589240     6.76226185     0.27747267     0.03213413     0.57926089
Si     6.83766910     9.57441091     1.45209500     0.60129499     0.20637904    -0.42457995
Si     6.90778425     9.58964555     6.81776966     0.25102806     0.11739334    -0.22189879
Si    10.94513893    10.99414538     2.75447896     0.50478464    -0.29949498     0.07420934
Si    11.01336530    11.02954250     8.14302337     0.14656647    -0.49001127    -0.00960902
Si    -0.03123319     5.51967920     2.73364123     0.50143749    -0.66951388    -0.06541041
Si     0.02419171     5.47765475     8.21993256     0.33903772    -0.09713300    -0.80084026
Si     5.58283727     0.05851172     2.76801842    -0.75936568    -0.00294077    -0.30232251
Si     5.51501403     8.36588495    10.83859521     0.02368889    -0.80705702     0.35679224
Si     5.56984024    10.99216530     8.10273518    -0.10252392     0.01318909     0.77821314
Si     5.59309952     2.65416267     5.41442546    -0.32446253     0.30363312     0.56453657
Si     1.37125206     1.34628836     4.06439896    -0.12709989     0.67736495     0.00194849
Si     1.32193542     1.32653705     9.50662802     1.04124331    -0.89510679    -0.68150902
Si     1.43700625     6.81859384     4.11028684    -0.41850168    -0.25399977     0.15686348
Si     1.45177752     6.78222011     9.53170970    -0.25400129     0.41196135     0.21998109
Si     6.95689074     1.41334330     4.06750597     0.20091581    -0.51508200    -0.02269650
Si     6.97491158     1.33431660     9.47063718    -0.72413546    -0.56895280     0.61240757
Si     6.85332247     6.84087454     4.07893663     0.47095239     0.01743261    -0.06042542
Si     6.96635817     6.96248429     9.59876207    -0.25061083    -0.64236629    -0.37094834
Si     0.04118035     2.63048898    -0.12157669    -0.65470898     1.24613404     1.30544543
Si    -0.09255213     2.69506827     5.47628191     1.20913041     0.41915005    -0.46441579
Si     0.04907236     8.20646310    10.87811202    -0.22685906    -0.12560099     0.13203686
Si    11.07453243     8.14603304     5.51282480    -0.02225668     0.52300644    -0.49867696
Si     5.57119959     5.49734036     8.21066853     0.00026442     0.25015324    -0.50663483
Si     5.55327661     2.73259479    -0.00062942     0.12179082    -0.28456426    -0.28078589
Si     5.59548994     8.21501031     5.44672578    -0.81884372     0.17899787     0.00737022
Si     8.28355361     2.64448486     8.20577839     0.66789746     0.93078202    -0.81048775
Si     4.22264686     4.03815366     9.42684010    -0.36540961     0.35674453     0.67209911
Si     4.10616886     9.62053734     4.10293072     0.61874837    -0.27904838    -0.31596833
Si     4.16450540     9.62666587     9.48196415    -0.23466673     0.43345064     0.00632000
Si     9.64898294     4.03336896     4.04881987     0.12255816     0.67770040     0.33671692
Si     9.68330555     4.18401677     9.50040859    -0.17688495    -1.05931044     0.19328958
Si     9.59736884     9.58969191     4.16081891     0.57631028     0.03822365     0.03587008
Si     9.70794046     9.59899157     9.51675570    -0.42115951     0.17774418     0.17127796
Si     2.81751796    -0.06674657    -0.03612905    -0.47727251     0.32415101     0.15070145
Si     2.89733325     0.12846797     5.25390537    -0.45214337    -1.06155705     0.94575489
Si     2.81093246     5.41602459     0.04657830     0.31148472     0.12875561    -0.42364278
Si     2.81517015     5.38382203     5.45996475    -0.00634533     0.29385805    -0.29782328
Si     8.14453535    10.99432906     0.03198827     1.15841770    -0.41279542     0.26076922
Si     8.23395882    -0.03777965     5.43440481     0.51504034     0.26349902     0.17223452
Si     4.24571538     4.03282721     4.12932088    -0.15092908     0.66259748    -0.41593066
Si     8.23036963     5.35902297     0.03962497     0.33920670     1.01710045    -0.02140965
Si     4.15051678     1.36367513     1.30188379     0.11772320    -0.09155365     0.45805115
Si     4.15718397     1.34363807     6.85606621     0.12422793     0.11522924    -0.84025097
Si     4.12853006     6.93645937     1.33175356     0.07178427    -0.25022680    -0.04487380
Si     4.11081969     6.83609368     6.75101457     0.35925043     0.24404269     0.72558939
Si     9.61848226     1.34227060     1.30360244     0.69699752    -0.05572328    -0.19718096
Si     9.76836635     1.32992863     6.80710987    -1.09479213    -0.54427129     0.34018582
Si     9.61677504     6.85167177     1.39342537     0.16227955    -0.02940253    -0.30093575
Si     9.67067121     6.81830250     6.79865477     0.05883973    -0.09950167     0.33104640
Si     2.84329103     2.72950718     2.79411078    -0.18411610    -0.31043899    -0.40109193
Si     2.78935631     2.65724219     8.17902632    -0.10596341     0.11625239     0.04088619