128
Lattice="10.951 0.000 0.000 0.000 10.951 0.000 0.000 0.000 21.850" Properties=species:S:1:pos:R:3:forces:R:3 energy=-687.80029297 virial="-7.93846321 -1.06086147 -7.86108208 -1.06086147 -7.30821896 -4.06003571 -7.86108208 -4.06003571 -4.59775686"
Si     1.32782771     4.10328124     1.43164698    -0.08295465    -0.15204883    -0.26947710
Si     5.60476242     8.16680914    21.82819700    -1.15682054     0.12822936     0.22839543
Si     5.45085312     2.71624826    16.36517885     0.18476997    -0.10997945     0.15480511
Si     5.48261992     2.75992547    11.03137899     0.20399398     0.09468263    -0.03803728
Si    10.93261722     8.18967766    16.44711442    -0.28697184     0.11971013    -0.37884659
Si    -0.08578396     8.22126200    21.88473654     0.13831988     0.15771878    -0.45294523
Si     0.07870282     2.74975748    16.45199902    -0.41548342     0.20572141    -0.32937175
Si    -0.05321337     2.73561333    10.96037478     0.43944901     0.16501895     0.10951219
Si     6.70503611     6.74253090    20.42723577     1.00995433     0.28130624    -0.00847409
Si     6.90468208     6.92994506    15.07993218    -0.52868229    -0.49107909    -0.32507849
Si     6.87372650     1.34695231    20.52252562     0.00263497    -0.18300697     0.03006385
Si     6.84084358     1.25457989    15.02034079     0.02442448     0.77627927     0.00898414
Si     1.32236755     6.90673413    20.49902084     0.34828526    -0.42754227     0.54337168
Si     1.37016080     6.95077004    15.00844643    -0.13605708    -0.71224904     0.20211560
Si     1.42328204     4.12660216    17.80323995    -0.11332735     0.13726586    -0.04892312
Si     1.48875861     1.38375215    20.48662706    -0.45490864    -0.20714627    -0.04162343
Si     5.27058834     5.52026526    19.09801773     0.15831265    -0.18417522    -0.01054798
Si     5.41879722     5.58601022    13.66485071     0.51068109    -0.19256976     0.07225946
Si     5.44848709    10.94208546    19.15512738     0.14907283     0.18418126    -0.13948275
Si     5.36161982     0.00304806    13.71649418     0.91756582    -0.35715264    -0.74721742
Si     0.05998111     5.45899438    19.23002064    -0.54613721    -0.19550017    -0.47043270
Si     0.02646591     5.43948071    13.74930397     0.01507578     0.24157833    -0.41869575
Si    10.92422056    10.96734390    19.18216491    -0.09450236    -0.05538848     0.04913406
Si    10.95904369    10.92444348    13.73145375     0.18700592     0.17103569    -0.70029902
Si     6.84398376     9.63473610    17.75051214     0.30082041     0.00983121    -0.02759660
Si     6.90126692     9.56761725    12.24527709    -1.27630091    -0.11520560     0.14261311
Si     6.70165583     4.14964297    17.83979572     0.24924473    -0.45896584    -0.32727432
Si     6.91463835     4.27000098    12.33541061    -0.37289697    -0.68977475    -0.10481526
Si     1.29552373     9.58250257    17.79145735     0.32867795    -0.02647486     0.14449981
Si     1.33236268     1.35920063    15.04841899     0.30028331     0.04566751     0.03104757
Si     1.47690683     9.64989523    12.32899745    -0.50459683    -0.17851974     0.25088322
Si     5.51464111     8.32244155    16.36972038    -0.30075711    -0.34167624     0.05680853
Si     8.10972170     5.41995998    16.45519153     0.49527377     0.10938050    -0.29981977
Si     8.17149586     2.76861607    19.14714070     0.16501300    -0.14841056    -0.15125614
Si     8.21920394     2.67646485    13.63003377    -0.17386630     0.14149976     0.02621308
Si     2.73036783     8.20613297    19.17123416    -0.21745327     0.62251961    -0.03600059
Si     2.77614347     8.15012591    13.59932633     0.06781825     0.47635201     0.02335701
Si     2.82014565     2.75718322    19.08376043    -0.07047985    -0.08687583     0.45557359
Si     2.71374643     2.68852806    13.64972241     0.16167308     0.45907480     0.05007847
Si     9.58852671     6.73190998    17.77549199    -0.05100296     0.22562185     0.00741375
Si     9.75202513     6.92088512    12.31596757    -0.89920151    -0.76490903    -0.01130640
Si     9.63603806     1.40118891    17.73445283    -0.31153220    -0.03586505     0.45904639
Si     9.61001981     1.27894788    12.26600038    -0.38863027     0.11158833     0.12629513
Si     3.99774682     6.99888950    17.67203917     0.58940244    -0.52962762     0.32217354
Si     4.13498757     6.88263658    12.15959685    -0.32919210    -0.42493170     0.05470169
Si     4.05743641     1.30830667    17.70185623     0.39110905     0.17525564     0.24824026
Si     4.13752910     4.08957355    20.64099246    -0.06194421    -0.20853905    -0.88595915
Si     4.12435168     4.11347115    15.02991294    -0.39957839     0.14103180    -0.17530638
Si     8.23609057     5.56304560    10.84562427     0.04652172     0.26965377     0.90113580
Si     8.33040653     0.01091476    16.34563003    -0.50997591    -0.26974899     0.22244403
Si     8.15354034    10.86689456    10.86371227     0.65005517     0.61211503     0.08152720
Si     2.70198721     5.54712466    16.39399221     0.12249153    -0.29952180    -0.29712653
Si     2.74236704     5.48308809    10.71107760     0.17151035     0.00302944     0.94887275
Si     2.70161945    10.88965751    16.36477458    -0.20709902     0.14706883     0.17741919
Si     2.61714223     0.02810552    10.85142340     0.79707354     0.26329628     0.16925812
Si     9.40123752     9.55726858    20.50654870     0.62381816     0.06963475     0.00568113
Si     9.58052182     9.53455310    14.91089811    -0.08733249    -0.24957481     0.82359397
Si     9.53685868     4.10123513    20.56633751     0.38144815    -0.11774294    -0.46244195
Si     9.52858058     4.04234532    15.04009186     0.24480432     0.20262852     0.27549213
Si     4.13285577     9.59145361    20.56876714     0.18236622    -0.45610893    -0.44569910
Si     4.06981651     9.56599115    14.99830850    -0.08340823    -0.20263317     0.12240511
Si     4.07651823     1.31202839    12.29194889    -0.19326735     0.34090048    -0.18732776
Si     1.42643643     4.17567740    12.27251051    -0.30490774    -0.38990676    -0.07650824
Si     8.32260713     8.17941259     8.03784698    -0.65466404     0.26647040     0.61179227
Si     8.27186704     8.28232979     2.79100541    -0.45166212    -0.37796196    -0.27495205
Si    10.88201925     8.28121854     5.41064208     0.32869098    -0.55505729     0.14489746
Si     0.09895992     8.31222414    11.04411920    -0.34864786    -0.01800687    -0.88376474
Si     0.21653123     2.68415295     5.61883035    -0.37071371     0.76309144    -0.53298128
Si     0.04226173     2.72123349    -0.02686557    -0.10823660     0.03859116     0.23148534
Si     6.86724195     6.86912066     9.47280716    -0.11018208    -0.14453082    -0.46504670
Si     6.86699995     6.81144550     4.03035253     0.03440640     0.15860043     0.45999506
Si     6.81368564     1.41535556     9.63487989     0.03496981    -0.43137151    -0.42083591
Si     6.73473190     1.43470187     4.10907489     0.31444085    -0.26761818     0.17645460
Si     1.29578356     6.94170644     9.55150366    -0.00446937    -0.54512334    -0.15760501
Si     1.38023067     6.94684220     4.07362982    -0.48874331    -0.61725283     0.13629812
Si     1.25816156     1.40179747     9.51376709     0.18385614    -0.20200810     0.07202595
Si     1.43090338     1.35187805     4.08927771    -0.03932919    -0.09332938     0.27407724
Si     5.30939376     2.75004806     5.44047020     0.53904885     0.06300811     0.07500179
Si     5.49827619     5.38366730     8.07988443     0.09627695     0.37302482     0.63160121
Si     5.55105973    10.92189483     8.16522923    -0.14421947     0.14711116     0.13770281
Si     5.34359198     0.06121241     2.79343722     0.89771831    -0.32861221    -0.34698868
Si    -0.09603703     5.41284014     8.24063233     0.60258746     0.50960445     0.31767067
Si    -0.00687145     5.48507021     2.78441934     0.06703009     0.09511809     0.02408037
Si    10.91952946    10.87802692     8.16368611     0.23083572     0.40391594    -0.07846554
Si    11.06113871    10.95536891     2.71541051    -0.50064301    -0.09201269     0.13413443
Si     6.94536614     9.62979008     6.70732534    -0.53357542    -0.43554431     0.42930230
Si     6.75400877     9.53398180     1.45042346     0.30805427     0.32942688     0.29680720
Si     6.84803691     3.97968655     6.81296407    -0.04733095     0.34425393    -0.35193154
Si     6.99032136     4.10625684     1.42854511    -0.43567824    -0.34686032     0.13185976
Si     1.35646514     9.54027146     6.72951203    -0.36783749     0.31000632     0.39288148
Si     1.35853111     9.52861529     1.33416192     0.34052965     0.06199683     0.04330227
Si     1.45876971     4.25745630     6.95393357    -0.10149129    -0.79681587    -0.49604076
Si     5.49576211     5.45339015     2.67410595     0.03567371     0.06541401     0.07352393
Si     5.43173685     8.22244026    10.76372903     0.54988617     0.23531087     0.62231433
Si     5.60384593     2.73731136    21.90315815    -0.41132337     0.02620507     0.21236254
Si     5.45770730     8.24724917     5.37538922     0.46351179    -0.14831160     0.14937803
Si     8.20996400     2.66120331     8.18753493    -0.05915339     0.62175453     0.60291713
Si     8.23304493     5.44440579     5.49830360    -0.07698099    -0.15595871    -0.23569635
Si     8.28667223     2.66909935     2.86659757     0.15461534     0.46129754    -0.44536626
Si     2.61722146     8.28237666     8.17870259     1.08054149    -0.47100616    -0.14894848
Si     2.75398103     8.04942122     2.62948924    -0.00058312     1.19269276     0.12201492
Si     2.73998416     2.64958824     8.16223004     0.13282579     0.35104766     0.19435632
Si     2.69915148     2.70726220     2.70096603     0.20350726     0.47548717     0.30852747
Si     9.66347520     6.77699762     6.81373150    -0.27737996     0.15574390    -0.41919681
Si     9.59400735     6.87293225     1.41049419    -0.39024258    -0.33843336    -0.01863533
Si     9.67430779     1.48431104     6.88550927    -0.32331872    -0.98189533    -0.26313016
Si     9.66068777     1.35774699     1.38090646    -0.28206643    -0.02537378     0.21208139
Si     4.17914024     6.83953605     6.78410258    -0.67497671     0.32501030     0.14157085
Si     4.09712055     6.76591347     1.27454292     0.56094170     0.08571300     0.10914110
Si     4.10571424     1.25424722     6.81665717    -0.22149307     0.19860232    -0.15839592
Si     4.11355439     1.41581142     1.41805452     0.02494602    -0.07706226    -0.62936270
Si     8.18425280     5.47054106    -0.00507839     0.17129560     0.41211754     0.17322743
Si     4.04277539     4.18472666     4.02444807     0.00604543    -0.36053473     0.23083150
Si     8.22442931     0.13555397     5.46935642     0.26685372     0.07240792    -0.22796987
Si     8.15364171    10.90434443     0.19705563     0.17511758     0.27648130    -0.88961804
Si     2.69905921     5.55581935     5.41589024     0.35638869    -0.03476378     0.29170978
Si     2.70389821     5.37368366     0.05143976    -0.32826486     0.67202091    -0.34309840
Si     2.73262925    10.82731706     5.39953886     0.09246130     0.67645502     0.24311456
Si     2.80500516    -0.02588278     0.03373971    -0.37697434     0.30424088     0.15329906
Si     9.57206877     9.55014362     9.51579864     0.12597382    -0.17757978     0.29541597
Si     9.58382133     9.66939770     4.10466578     0.00980633     0.29387879    -0.11134365
Si     9.51622945     4.09692561     9.66417133     0.10698157    -0.34889621    -0.78247714
Si     9.71764149     4.06414100     4.22770108    -0.32172185    -0.11572967    -0.11294684
Si     4.06653554     9.65049282     9.53808179    -0.12796998    -0.17062525    -0.45077801
Si     4.05732435     9.56913951     4.01087935    -0.03154723    -0.69220877     0.05155518
Si     4.17922892     3.99029133     9.52805779    -0.34957206     0.42483762    -0.22891000
Si     8.18170183     8.17384469    13.56084746     0.50885928     0.11651941     0.41362521
Si     8.14747010     8.11938217    19.03770065    -0.04336708     0.21700017     0.49462366
128
Lattice="10.896 0.000 0.000 0.000 10.773 0.000 0.000 0.000 22.477" Properties=species:S:1:pos:R:3:forces:R:3 energy=-679.68872070 virial="2.80874920 0.68934584 15.41452885 0.68934584 14.11365223 5.65832758 15.41452885 5.65832758 -33.42014313"
Si     1.20934865     4.02059529     1.37779533     1.11543512     0.20617376     0.08552393
Si     5.27680714     8.06414594    22.56854733     1.92642307    -0.01743461    -0.33553717
Si     5.39308634     2.66556037    16.78994014    -0.44908434    -0.01538799     0.12780683
Si     5.54649266     2.75255873    11.31925902    -0.73519439    -0.24330543    -1.10950112
Si    10.79566576     7.95465079    16.92330476     1.05049574    -0.26380020     0.63206547
Si    -0.14063950     8.17133889    22.37416767     0.60461688    -0.91772038     1.65179265
Si    -0.06643949     2.79999566    16.97364257     0.61095136    -0.54832268     0.02834119
Si     0.07957167     2.68497910    11.32845035    -1.64393425    -0.71339095    -1.00704694
Si     6.89772180     6.71183096    21.06195192    -1.50726724    -0.27897790     0.67486703
Si     6.72124989     6.67897794    15.41205229     0.70196182     0.72131193     0.58680832
Si     6.77691473     1.28971651    21.17943645     0.02822659     0.97299743    -0.24264047
Si     6.88613247     1.47275431    15.42043142    -0.95143753    -1.71518564     0.52814174
Si     1.31510069     6.71423863    21.25304793    -0.89481729     0.76260442    -1.94329870
Si     1.28175745     6.60095116    15.43992901     0.50757581     1.33437324    -0.20717540
Si     1.47508317     4.12184744    18.32396484    -0.39045164    -0.65765059    -0.12536393
Si     1.27250678     1.25583511    21.12228164     0.55488312     0.76306915     0.29890466
Si     5.30126738     5.36876771    19.64002720     1.21246004     0.01725636     0.13162798
Si     5.50411953     5.40603540    13.95800918    -1.12679744     0.03061593     0.32277393
Si     5.58249387    10.84691860    19.63904216    -0.54903311    -0.80963731     0.46913385
Si     5.48433854    -0.03371825    13.91456698    -0.60671854     0.60757822     0.75718856
Si    -0.12540355     5.29949897    19.61193680     1.16024995     0.59602034     0.63806725
Si     0.04206807     5.31812205    14.00050490    -0.49354121     0.09427483     0.07388718
Si    10.77639189    10.77300182    19.88468140     0.37434036     0.48859757    -1.73502803
Si    10.83514259    10.83152077    13.99241301     0.39833784    -0.38711229     0.85679698
Si     6.90164299     9.47072941    18.31388309    -0.73983955    -0.51780099    -0.27258968
Si     6.60781960     9.26953376    12.48071289     1.75794005     0.70351511     0.54343331
Si     6.71381701     3.88655766    18.27783899     0.11994912     1.06666780    -0.10013752
Si     6.80267869     4.00935400    12.75120873     0.32500815     0.61904782    -0.90823197
Si     1.18309921     9.48166611    18.39262970    -0.11768701    -0.42477506    -0.36780360
Si     1.43852348     1.45816345    15.51619349    -1.05549824    -0.12095810    -0.31002796
Si     1.37096321     9.50297623    12.56197858     0.27495477    -0.01952224    -0.21178050
Si     5.40513465     8.13617924    16.89721340     0.33929104    -0.16634247    -0.14284571
Si     8.14484598     5.33166271    16.85057054    -0.81299561     0.15251687     0.33822668
Si     8.10201355     2.70760922    19.77290717    -0.26982141    -0.17043748     0.06976639
Si     8.09640661     2.67602051    14.00937712     1.28264201     0.75959688     0.60312915
Si     2.58129653     8.25310269    19.78436218     0.43843329    -1.37258172    -0.23538905
Si     2.78618234     8.06645900    13.95324170    -0.58320773    -0.18322556     0.11348042
Si     2.74682635     2.55433653    19.79624330    -0.47641385     0.33461887    -0.84998858
Si     2.72176456     2.91286666    14.04144661    -0.68493450    -1.59359646    -0.32400948
Si     9.41329572     6.66694291    18.31835610     0.05750562     0.17314838    -0.08851174
Si     9.54949960     6.67909012    12.69793109     0.65133417     0.98843688    -0.22926366
Si     9.43385534     1.38686449    18.45485481     0.49328953    -0.27935624    -0.96665549
Si     9.35773662     1.33295982    12.64832713     1.46598852     0.30883273     0.07651730
Si     4.05335050     6.78993721    18.30502125    -0.71629918     0.26596624    -0.19500065
Si     4.10848423     6.61703961    12.41809776     0.67527312     1.38583040     1.37807250
Si     4.09496957     1.24577853    18.35267550    -0.43014193     0.51782191    -0.83412987
Si     4.09991387     3.93687435    21.00014826    -0.13729385     0.67707843     1.21826553
Si     3.96883232     4.14098732    15.36982920     1.92041421    -0.10025819     0.44554549
Si     8.11170208     5.49961659    11.42779855    -0.17148614    -0.90481955    -1.71538901
Si     8.16421180    -0.04043962    16.88896120     0.32661316     0.83112514    -0.09988708
Si     8.26100668    10.76486031    11.21357477    -1.48535085    -0.92158735    -0.25275490
Si     2.75004627     5.40917668    16.74112909    -0.32506719     0.45877141     1.43877614
Si     2.75403546     5.30812054    11.30514689    -0.65820354    -0.17265454    -1.70034504
Si     2.53660179    10.73506032    16.97849338     1.03615379     0.25937510    -0.45813292
Si     2.91917108     0.18674317    11.11232996    -1.25619614    -0.85604006     0.20118774
Si     9.47599376     9.47637542    21.07926693    -0.86342329    -0.70810717     0.11034413
Si     9.57075276     9.30545792    15.67438604    -0.51404405     1.23156071    -1.84867072
Si     9.60931992     3.93841546    21.04910098    -0.77269709     0.42464715     0.87698686
Si     9.56728001     4.12942435    15.52048088    -0.29228699    -0.86127543    -0.69677210
Si     4.20467715     9.38603766    21.00107577    -0.76625168     0.85626161     0.49655813
Si     4.04122370     9.46428723    15.47464859    -0.03690081     0.08180893    -0.23234445
Si     4.05275522     1.54847686    12.64950716     0.56857693    -0.80482912     0.14283390
Si     1.33421535     4.02108422    12.55432335     0.45787844     0.56077844     0.92915767
Si     8.09178266     8.17254810     8.35734259     1.35247779    -0.57297897    -0.65997672
Si     7.98344753     8.00589140     2.87822737     1.62989295     0.81241810     0.37031502
Si    10.87498490     8.00056151     5.52714291    -0.11392429     0.56866378    -0.09217697
Si    -0.04095542     8.12674836    11.04990275     0.90927017    -0.86402738     1.57861829
Si     0.22021842     2.88034061     5.71199531    -0.21886829    -2.54737115     1.00394499
Si    -0.03131417     2.58120040     0.08461296    -0.23205504     0.05854067    -0.34446007
Si     6.84355701     6.75876664     9.54341982     0.52931094    -0.09218684     2.38977385
Si     6.86299937     6.66585664     4.34487526    -0.23859738    -0.23293108    -1.60464096
Si     6.74165698     1.22012870     9.83090230     0.40406033     0.79635525     0.57957006
Si     6.77741650     1.49201569     4.20600753     0.68274546    -0.62779528    -0.02310252
Si     1.46794858     6.74650745     9.80559611     0.41373694     0.46902385     0.43014541
Si     1.28859082     6.60098900     4.08864692     1.02467704     1.34422219     0.40899122
Si     1.29769686     1.38525255     9.78463796     0.72697067     0.02837743     0.61458719
Si     1.41496274     1.38212654     4.34987593     0.19375169     0.01442112    -0.95401883
Si     5.38097521     2.72584005     5.59383021    -0.09762260    -0.30306286     0.04440233
Si     5.54067153     5.41927067     8.40311434    -1.25888944    -0.88219416    -1.33797479
Si     5.46022464    10.84057955     8.30051123    -0.20386380    -0.10388239    -0.23485091
Si     5.58041126    -0.04717729     2.82905408    -1.61350191     0.93317842     0.46299329
Si     0.17682652     5.49677392     8.45701154    -1.51214480    -1.33725893    -0.90186763
Si    -0.05439603     5.33457012     2.78174291    -0.54885149    -0.32491663     0.25837409
Si    10.95691667    10.80344751     8.41320781    -0.58421367    -0.62032270     0.76729918
Si    10.98171209    10.76246659     2.81736517     0.76765800     0.65300161    -0.29465872
Si     6.77189620     9.42183990     7.02089854     0.55847609     0.91737074    -0.94568110
Si     6.85087624     9.45585096     1.54825183    -0.18654825    -0.59868222    -1.87015367
Si     6.78266461     4.00026988     6.88842409    -0.14151892    -0.21229714     1.48190880
Si     6.93894094     3.89448986     1.65419027     0.05947824     0.89981341    -1.14615500
Si     1.23081990     9.44256924     7.05120813     1.31487465    -0.85667223    -0.84085023
Si     1.38782034     9.47932797     1.30008570    -0.85903525    -0.26993084     0.25488138
Si     1.60713507     3.99740102     7.04526288    -0.30997008     1.41011345     0.79755747
Si     5.58871708     5.32534115     2.86485948    -0.35875520     0.04363946     0.34121859
Si     5.42526822     7.99440338    10.97969931    -0.56106865     0.27047834    -0.17993006
Si     5.56272058     2.76801191    22.60100633    -0.41027966    -0.32858506    -0.67578673
Si     5.64328114     8.04480832     5.52013329    -1.35196590     0.64737236     0.86738402
Si     8.03719914     2.71523185     8.57288102     0.67870712    -0.33586735    -1.01389432
Si     8.05635016     5.27008542     5.54607610     1.85447776    -0.61416781     0.35844243
Si     8.43725823     2.74563265     2.94594109    -1.16030228    -1.35834026    -0.41932088
Si     2.88273671     8.03403446     8.30739274    -1.70159554     0.36273080     0.05214344
Si     2.71549104     8.19302497     2.62162159     0.25568283    -2.08271122     0.61574578
Si     2.78597512     2.61891479     8.48773770    -0.09430633    -0.00322974    -0.45907417
Si     2.72521108     2.83325111     2.85097478     0.02192042    -0.83717525    -0.29734531
Si     9.42506585     6.65518965     6.82458994     0.65496612     0.46362305     1.35792422
Si     9.42006565     6.76930707     1.54655962     0.58917886     0.05656864    -0.88143158
Si     9.63241505     1.33609431     7.16090027    -0.76756847     1.33140492    -0.95786273
Si     9.51793323     1.23190433     1.51447217     0.09063251     0.38487953    -0.51126009
Si     4.15137515     6.82332310     6.87700274     1.05827022    -0.29946798     0.63639033
Si     4.22488945     6.51297650     1.40286375    -1.36852992     0.95297515     0.04520702
Si     4.00416173     1.32935465     6.91379757     0.60042238     0.22497773     0.42304659
Si     4.10709284     1.38952737     1.29161594    -0.00522053    -0.07922076     1.43847668
Si     8.18670261     5.38402186     0.09137358     0.07018118    -0.61430442    -0.24993289
Si     4.10096281     4.14608639     4.29191876    -0.12409578    -0.13640597    -0.56474513
Si     8.24373392     0.12066797     5.57216148    -0.29147249    -0.22976075     0.53403771
Si     8.16239563    10.77052573    -0.06643942    -0.09097513    -0.27368912     1.49141669
Si     2.79416742     5.51548872     5.66907451    -0.73921168    -0.69546604    -0.84471411
Si     2.63919616     5.42296342    -0.02998430     1.08156896    -1.48674345     0.77211493
Si     2.76890061    10.69453513     5.58623546    -0.34149200    -0.60821664    -0.18688935
Si     2.67836994     0.04050279     0.01835298     1.08161139    -0.25258356    -0.71020067
Si     9.52009918     9.37731103     9.79422072    -0.22245997     0.94508445    -0.72746730
Si     9.64198322     9.61521287     4.15055299    -1.22075844    -1.82538223     0.76161104
Si     9.50101175     3.99939467     9.87402951     0.51357114     1.03048944     0.37339702
Si     9.71793552     3.83816877     4.38636747    -1.04569185     2.60220528    -0.94968307
Si     4.04853827     9.52259367     9.52284221     0.65950096    -0.10735562     1.66442657
Si     4.14378302     9.17839862     4.13616316     0.00828252     1.75538194     0.17415585
Si     4.07716206     4.06445156     9.72520244     0.77858293     0.00096262     0.95153177
Si     8.24205069     8.04623674    14.07958522    -0.85469389     0.17659369    -0.05792233
Si     8.13337465     8.09113624    19.74343383     0.34222430    -0.04586937    -0.46375895
128
Lattice="10.922 0.000 0.000 0.000 10.875 0.000 0.000 0.000 22.013" Properties=species:S:1:pos:R:3:forces:R:3 energy=-687.49609375 virial="1.57421589 -1.18424499 -6.69304895 -1.18424499 6.82807398 -4.20842600 -6.69304895 -4.20842600 -8.24869823"
Si     1.41260331     4.02956648     1.35935240    -0.46613541     0.05427784     0.04877425
Si     5.49978347     8.14490369    22.02067732    -1.28273761     0.00441094     0.19919473
Si     5.35165001     2.69400934    16.50105200     0.75654745     0.03281580     0.17103675
Si     5.45126187     2.72439213    10.83384253     0.41635400    -0.14913353     1.24469972
Si    10.92903001     8.06867541    16.58442897    -0.58182847     0.44618267    -0.66552949
Si    -0.01907544     8.08781442    22.13942669     0.20153221     0.55009532    -1.07014120
Si    -0.02370690     2.71464784    16.58781275    -0.32876414     0.30253196    -0.41701257
Si    -0.11378854     2.67770973    10.90927919     0.86943674     0.21894225     0.58293712
Si     6.76302850     6.75940420    20.79402532     0.93008894    -0.17153996    -0.93853587
Si     6.77659921     6.81515913    15.17276380    -0.23399338    -0.15413530    -0.44864464
Si     6.78249207     1.42415612    20.71030680    -0.07392500    -0.70223176    -0.10996829
Si     6.76498027     1.30314227    15.16700589     0.28214100     0.84586430    -0.23054047
Si     1.24937474     6.79864386    20.56657370     0.67612320    -0.22972742     1.18361855
Si     1.39183428     6.83510967    15.07768288    -0.35700876    -0.46015263     0.51083952
Si     1.34462594     4.02406248    17.91043022    -0.01156242     0.52749217     0.10404412
Si     1.28301877     1.34864149    20.71852226     0.14969945    -0.19170091    -0.49064988
Si     5.58863263     5.41762587    19.29627750    -1.08783507     0.06780309    -0.05582592
Si     5.42955830     5.44986947    13.69857910     0.43355295     0.07247685     0.17387581
Si     5.47256515    10.84872790    19.28323668    -0.14876804     0.30583656    -0.13216016
Si     5.43567762     0.04822209    13.73856495     0.25320053    -0.63133645    -0.17345586
Si    -0.01714578     5.43237990    19.26923123    -0.62149322    -0.47955477    -0.15138708
Si    -0.05206047     5.45440254    13.71613206     0.27358168     0.26558173     0.12496814
Si    10.82810236    10.91507828    19.21169493     0.16718891    -0.42317247     0.73171872
Si    10.96988523    10.88989294    13.80477761    -0.35201439    -0.08453509    -0.69660366
Si     6.78254062     9.43066405    17.87896561     0.21317293     0.53658104     0.16665205
Si     6.84673683     9.44827646    12.33305247    -1.02731121     0.12323622     0.31230402
Si     6.81555290     4.05623065    17.83533789    -0.23200814    -0.22635403     0.31655860
Si     6.81555471     4.04571194    12.30532321     0.02515897    -0.05034900     0.43878070
Si     1.25425271     9.47621909    17.91250867     0.60795265     0.35804299     0.01633127
Si     1.23648315     1.42057757    15.15320816     0.95991427    -0.21954444     0.16480148
Si     1.36588232     9.56234885    12.26639137    -0.28042418    -0.23665099     0.60181385
Si     5.39140550     8.12174098    16.51838861    -0.22617441     0.26512223     0.01922693
Si     8.09309742     5.45081495    16.49965655     0.61377966    -0.11589065    -0.00921923
Si     8.09519768     2.72745447    19.33989012     0.48262796     0.11785439    -0.47370666
Si     8.25703653     2.80092862    13.85052094    -0.80057669    -0.79985148    -0.73205066
Si     2.65277045     8.10760148    19.29194661     0.14455149     0.74760807     0.05702574
Si     2.65715237     8.21253162    13.70818189     0.38921553     0.10950923     0.08386310
Si     2.63295653     2.65985492    19.27412816     0.51920146     0.26647338     0.36074325
Si     2.67889878     2.71067963    13.78098609     0.36242199     0.33787411    -0.04928967
Si     9.44233977     6.77147783    17.93199112     0.42547920    -0.04206810    -0.11468874
Si     9.51915759     6.87697836    12.35035721    -0.26425794    -0.67157447     0.13518713
Si     9.48543655     1.38967360    17.87841837    -0.07866818     0.21686064     0.50509453
Si     9.57285418     1.36359539    12.41403477    -0.52676338    -0.21840984    -0.10343255
Si     4.04081587     6.80776672    17.99376216     0.61331642    -0.24804890    -0.23596963
Si     4.09364735     6.87929766    12.40852228    -0.25284082    -0.42841533    -0.57973576
Si     4.05561833     1.37073649    17.89659129    -0.01168857    -0.27660829     0.32328445
Si     4.09174839     4.08869286    20.65991771     0.04088017    -0.33600786    -0.61527443
Si     4.17610773     4.12287967    15.15177891    -1.20311785     0.02066016    -0.13660538
Si     8.18610068     5.34234683    10.93008686     0.19676070     0.85564435     0.86846745
Si     8.14863527     0.08333660    16.55929787    -0.10388424    -0.90720838    -0.15840819
Si     8.09849654    10.78761623    11.00845816     0.94805449     0.82199699    -0.21048735
Si     2.71795650     5.48052635    16.62481610     0.00896764    -0.33118683    -0.85498166
Si     2.74103770     5.40334512    10.97659343     0.08023784     0.23939277     0.67014289
Si     2.67642221    10.92870691    16.54438368    -0.24173242    -0.42730549    -0.25661659
Si     2.80338743    -0.00866648    11.01887140     0.19136381     0.29770327    -0.14898032
Si     9.52389037     9.47100836    20.70499832     0.22189698     0.29297322    -0.16584559
Si     9.56835954     9.62674204    15.15810976    -0.27583408    -0.89939815     0.27533841
Si     9.51725933     4.04840378    20.71660291     0.27674812    -0.05740690    -0.65682971