32
Lattice="6.97600 0.00000 -0.00000 0.10600 6.73500 -0.00000 -0.04300 -0.20500 6.79600" Properties=species:S:1:pos:R:3:force:R:3 pbc="T T T" energy=-32097.568671201414 virial="5.9148 4.3671 2.8853 4.3671 5.9293 2.4243 2.8853 2.4243 6.0543"
Ag     3.53159330     3.28350310     3.36591846    -0.49012701    -0.51296721     1.45462911
Ag     7.00489527     3.26232310     3.42655048    -0.48359610     0.82829956    -1.46819287
Ag     5.22909562     3.22844628     5.08643553     0.20791119    -0.99937011     0.98534677
Ag     1.76323451     3.20110398     5.07700850     0.58184943     0.98730534     1.07763668
Ag     7.03595571     4.99819072     1.68470836    -0.04147002     0.00515488     0.73166715
Ag     0.02434485     0.03037029    -0.00151757    -0.54757412    -0.69012806    -0.61450672
Ag     0.00166970     3.13929535     6.78708459    -0.40260499     0.61076678     0.05555229
Ag     3.55020278     6.53166252     6.78317662    -0.67978407     0.27767681     0.76230709
Ag     1.80680266     4.94406797     3.39814981    -0.78731155     0.29263117     0.12886427
Ag     5.30320653     5.05340400     0.02393410     0.35806279    -0.43385734    -0.90236513
Ag     3.46730489    -0.10396875     3.39338096    -0.20559493     0.13048234    -0.80056911
Ag     1.78006213     3.33531957     1.70510989    -0.62867502    -1.13394349    -0.16287513
Ag     5.24927624     1.66419910     0.01119524     0.21314161     1.50216094    -0.40447610
Ag     1.82790013     6.56331883     5.08816588    -0.68959707     0.33432359     0.38472057
Ag     7.00462132     4.91091568     5.11160631     0.86309274    -0.48501713     0.17872011
Ag     6.95176416     1.52749367     5.07310186     0.17532392    -0.31535208     1.14025543
Ag     3.52704402     4.88848713     5.09872485    -0.17668798    -0.17400953     0.25634670
Ag     5.29152189     4.97523593     3.42499899     0.31650764    -0.38525460    -1.46508279
Ag     3.54182283     3.36571599     0.01820660    -0.01684052    -0.00303570    -1.36501600
Ag     5.24230799     1.56256573     3.40396162    -0.28027487     0.49854266    -0.62584300
Ag     3.49321376     1.50762310     5.07140513    -0.13915099     1.73673993     0.73799636
Ag     0.02534644     1.62897729     1.70485951    -0.30233740     1.50682293    -0.02120667
Ag     1.81804014     5.04967489     0.01035271    -0.13296060    -0.52286800    -0.94465909
Ag     1.71667209    -0.04334854     1.68844189     1.27851845     0.35669826     0.36869235
Ag     5.30227573     6.57547498     5.10873535     0.30200565    -0.07986911     0.21086643
Ag     3.54166051     5.01635772     1.69985625     0.55046687     0.50767760    -0.10059898
Ag     5.32794780     6.69327157     1.67886831    -0.11038940    -0.26284278     1.16219829
Ag     3.50320829     1.65896589     1.70483277    -0.57327651    -1.53649879    -0.24798294
Ag     1.73951552     1.57866882     3.41321255     0.93299177    -0.08195809    -1.08391911
Ag     5.26374875     3.33379477     1.71958914     1.32710101    -0.58914582    -0.23565794
Ag     1.74020964     1.50024472     6.76565128     0.00772747    -0.57316070     0.71659217
Ag     0.09790333     6.63697655     3.38740386    -0.41121818    -0.83592862     0.09979927
32
Lattice="6.97600 0.00000 -0.00000 0.10600 6.73500 -0.00000 -0.04300 -0.20500 6.79600" Properties=species:S:1:pos:R:3:force:R:3 pbc="T T T" energy=-32097.56108083351 virial="5.9147 -3.0091 2.8583 -3.0091 5.9284 2.4238 2.8583 2.4238 6.0561"
Ag     3.53396493     3.28193416     3.36526393    -0.66631027    -0.42552017     1.49291056
Ag     7.00572434     3.26164750     3.42544628    -0.53098151     0.91006186    -1.37334764
Ag     5.22849265     3.22728594     5.08465247     0.35651602    -0.89596430     1.07268273
Ag     1.76635604     3.19882072     5.07787166     0.45128905     1.15772636     0.97242234
Ag     7.03883629     4.99695936     1.68487662    -0.21141390    -0.03310046     0.69763533
Ag     0.02529901     0.02916943     0.00028275    -0.63846624    -0.61737319    -0.71367169
Ag     0.00166801     3.13817472     6.78811985    -0.42837516     0.75646899    -0.01167977
Ag     3.54784948     6.52980505     6.78174677    -0.61909013     0.39964947     0.90143473
Ag     1.80499669     4.94548101     3.39642049    -0.62375895     0.20964112     0.27882753
Ag     5.30291516     5.05643711     0.02259307     0.44877164    -0.59411183    -0.89357345
Ag     3.46664228    -0.10148475     3.39201106    -0.27305015     0.06814326    -0.69604697
Ag     1.78117193     3.33468409     1.70673942    -0.57636407    -1.09978605    -0.22327336
Ag     5.24930896     1.66476375     0.00902848     0.24017757     1.39364319    -0.29918979
Ag     1.82677449     6.56289477     5.08930143    -0.59933934     0.36102522     0.31602107
Ag     7.00445806     4.91359045     5.11138733     0.87849138    -0.70192177     0.18912633
Ag     6.95479939     1.52833090     5.07332388     0.02620597    -0.35841561     1.17497681
Ag     3.52690668     4.88614009     5.10017275    -0.20048843    -0.07666740     0.05643203
Ag     5.29103366     4.97578157     3.42522253     0.35080977    -0.41676394    -1.45222742
Ag     3.54271284     3.36567405     0.01752990    -0.00636305     0.03998165    -1.24172315
Ag     5.24126890     1.56390013     3.40439405    -0.19137617     0.41038659    -0.67175598
Ag     3.49412071     1.50743927     5.07435243    -0.24568355     1.67665138     0.61122031
Ag     0.02357841     1.62899561     1.70390090    -0.32641329     1.50869615     0.02218006
Ag     1.82031007     5.04961390     0.00913384    -0.20717845    -0.61664262    -0.85990533
Ag     1.71241852    -0.04380874     1.68840399     1.46512864     0.40998287     0.37366217
Ag     5.30063880     6.57663390     5.10746262     0.36252198    -0.08393008     0.23295051
Ag     3.54398084     5.01785574     1.70157371     0.40746229     0.44898333    -0.16088020
Ag     5.32875429     6.69082172     1.67936681    -0.13007145    -0.09751780     1.12387935
Ag     3.50371983     1.65891063     1.70456368    -0.60379320    -1.64146488    -0.30878113
Ag     1.73696078     1.57823030     3.41380478     1.07650101    -0.09978957    -1.12992571
Ag     5.26182549     3.33374791     1.71867699     1.45320940    -0.52276186    -0.27330947
Ag     1.74006367     1.50211902     6.76681320     0.04053354    -0.68225315     0.73992170
Ag     0.09681798     6.63778087     3.38867259    -0.46586154    -0.82799018     0.06254850
32
Lattice="6.97600 0.00000 -0.00000 0.10600 6.73500 -0.00000 -0.04300 -0.20500 6.79600" Properties=species:S:1:pos:R:3:force:R:3 pbc="T T T" energy=-32097.54735043997 virial="5.9147 -11.7170 2.8329 -11.7170 5.9276 2.4231 2.8329 2.4231 6.0580"
Ag     3.53624598     3.28034816     3.36475071    -0.83641819    -0.33912245     1.52069133
Ag     7.00649526     3.26106169     3.42423465    -0.57337708     0.98146357    -1.26708082
Ag     5.22792934     3.22606134     5.08298831     0.50464893    -0.78707544     1.14869960
Ag     1.76947637     3.19667054     5.07880981     0.31670003     1.31562143     0.85970047
Ag     7.04165998     4.99574134     1.68510464    -0.37521066    -0.06953210     0.65787027
Ag     0.02618382     0.02792961     0.00199583    -0.72628675    -0.54442368    -0.79906165
Ag     0.00162827     3.13713612     6.78914039    -0.44784694     0.89634264    -0.07601838
Ag     3.54547231     6.52800766     6.78041594    -0.55290186     0.51525010     1.03209825
Ag     1.80315919     4.94689398     3.39473883    -0.46009596     0.12864396     0.42119427
Ag     5.30266751     5.05937730     0.02119038     0.53456757    -0.74406648    -0.88182761
Ag     3.46596417    -0.09902756     3.39059743    -0.33760810     0.00502914    -0.58193434
Ag     1.78221584     3.33395930     1.70832755    -0.51718265    -1.05769986    -0.28343179
Ag     5.24936258     1.66544475     0.00686379     0.26697667     1.28101883    -0.19305168
Ag     1.82561049     6.56250840     5.09045004    -0.50569315     0.39083452     0.24376147
Ag     7.00437502     4.91616747     5.11118806     0.88710692    -0.91456753     0.19664215
Ag     6.95779680     1.52912521     5.07364737    -0.11824610    -0.39731605     1.20153518
Ag     3.52675335     4.88381729     5.10160651    -0.21817344     0.02307537    -0.14055756
Ag     5.29058307     4.97628295     3.42531407     0.38023484    -0.44753145    -1.43033561
Ag     3.54359051     3.36563622     0.01675183     0.00546000     0.08142481    -1.10620362
Ag     5.24022655     1.56525335     3.40476106    -0.10194300     0.32282448    -0.71418675
Ag     3.49499383     1.50740685     5.07731506    -0.35022679     1.60374204     0.48358756
Ag     0.02180476     1.62914774     1.70295695    -0.34850524     1.49472393     0.06451008
Ag     1.82253156     5.04949893     0.00785468    -0.28176455    -0.70250762    -0.76794832
Ag     1.70835141    -0.04422642     1.68839978     1.63710097     0.45989897     0.37414865
Ag     5.29905574     6.57777003     5.10622744     0.41513839    -0.08681797     0.25012972
Ag     3.54630669     5.01937383     1.70325416     0.26402540     0.37958721    -0.21970151
Ag     5.32953855     6.68839562     1.67995857    -0.14561856     0.06823549     1.07666588
Ag     3.50417096     1.65871025     1.70427071    -0.62772549    -1.73219888    -0.36669311
Ag     1.73453548     1.57778872     3.41428878     1.20700313    -0.11309160    -1.16790470
Ag     5.26005680     3.33365523     1.71775262     1.56315876    -0.45499274    -0.31266655
Ag     1.73992324     1.50390790     6.76802549     0.06934226    -0.78439092     0.75940602
Ag     0.09570560     6.63850097     3.38993008    -0.51742688    -0.81360495     0.02751282
32
Lattice="6.97600 0.00000 -0.00000 0.10600 6.73500 -0.00000 -0.04300 -0.20500 6.79600" Properties=species:S:1:pos:R:3:force:R:3 pbc="T T T" energy=-32097.527955349255 virial="5.9149 -2.1502 2.8066 -2.1502 5.9270 2.4225 2.8066 2.4225 6.0600"
Ag     3.53845272     3.27873147     3.36437341    -1.00133412    -0.25319761     1.53817551
Ag     7.00721506     3.26056356     3.42290940    -0.61095488     1.04295991    -1.14924101
Ag     5.22741105     3.22476606     5.08142655     0.65280341    -0.67211393     1.21484065
Ag     1.77262573     3.19463757     5.07982507     0.17691518     1.46162819     0.73903027
Ag     7.04445074     4.99451684     1.68539156    -0.53393463    -0.10346485     0.61228999
Ag     0.02700386     0.02664080     0.00363782    -0.81130923    -0.47082578    -0.87200683
Ag     0.00154847     3.13617748     6.79015434    -0.46085117     1.03126474    -0.13845185
Ag     3.54304515     6.52625596     6.77917714    -0.48052553     0.62512996     1.15509155
Ag     1.80128012     4.94831878     3.39309447    -0.29565750     0.04910913     0.55724862
Ag     5.30246764     5.06225158     0.01970849     0.61594374    -0.88510569    -0.86709762
Ag     3.46525571    -0.09656937     3.38913143    -0.39942955    -0.05921406    -0.45780058
Ag     1.78321372     3.33313972     1.70989067    -0.45122397    -1.00812684    -0.34367880
Ag     5.24944010     1.66624051     0.00468136     0.29372092     1.16347701    -0.08549084
Ag     1.82440099     6.56215690     5.09162071    -0.40823158     0.42353634     0.16773279
Ag     7.00437133     4.91866325     5.11100633     0.88943941    -1.12391417     0.20122296
Ag     6.96078430     1.52988415     5.07407842    -0.25890223    -0.43193761     1.22012545
Ag     3.52658046     4.88149604     5.10302801    -0.22932144     0.12640789    -0.33599580
Ag     5.29016639     4.97674442     3.42527768     0.40546569    -0.47813573    -1.39956237
Ag     3.54446886     3.36560566     0.01587462     0.01885251     0.12168062    -0.95801202
Ag     5.23917485     1.56663574     3.40506427    -0.01144003     0.23516960    -0.75335997
Ag     3.49583582     1.50751788     5.08032160    -0.45337865     1.51835550     0.35375353
Ag     0.01999954     1.62943362     1.70201856    -0.36831139     1.46552601     0.10602579
Ag     1.82472834     5.04932109     0.00650655    -0.35779491    -0.78106494    -0.66793870
Ag     1.70442985    -0.04460305     1.68842905     1.79610612     0.50619601     0.37034869
Ag     5.29750946     6.57889864     5.10501435     0.46041328    -0.08887610     0.26330360
Ag     3.54865667     5.02092621     1.70491532     0.11919527     0.29932428    -0.27794341
Ag     5.33030996     6.68597508     1.68064678    -0.15756608     0.23499353     1.02055493
Ag     3.50456603     1.65835487     1.70394487    -0.64542006    -1.80912197    -0.42205718
Ag     1.73221762     1.57733692     3.41466841     1.32517895    -0.12160811    -1.19764729
Ag     5.25842756     3.33352182     1.71680007     1.65721189    -0.38547694    -0.35317308
Ag     1.73978898     1.50562701     6.76930599     0.09368051    -0.88022097     0.77522140
Ag     0.09454668     6.63914845     3.39119032    -0.56564520    -0.79311401    -0.00617313
32
Lattice="6.97600 0.00000 -0.00000 0.10600 6.73500 -0.00000 -0.04300 -0.20500 6.79600" Properties=species:S:1:pos:R:3:force:R:3 pbc="T T T" energy=-32097.503198111124 virial="5.9152 -3.1981 2.7788 -3.1981 5.9266 2.4219 2.7788 2.4219 6.0620"
Ag     3.54058369     3.27708175     3.36413173    -1.16070693    -0.16763569     1.54506548
Ag     7.00788463     3.26015584     3.42147258    -0.64368908     1.09457532    -1.02049759
Ag     5.22694803     3.22340220     5.07996382     0.80024617    -0.55133621     1.27184282
Ag     1.77581106     3.19272278     5.08091313     0.03175563     1.59514149     0.61092132
Ag     7.04721139     4.99327523     1.68573526    -0.68745685    -0.13397767     0.56099176
Ag     0.02775633     0.02530152     0.00521203    -0.89323419    -0.39657573    -0.93332370
Ag     0.00142680     3.13530527     6.79116235    -0.46718124     1.16116008    -0.19959021
Ag     3.54055938     6.52454918     6.77803408    -0.40159169     0.72907417     1.26998297
Ag     1.79936253     4.94975708     3.39148962    -0.13080179    -0.02908713     0.68726808
Ag     5.30232176     5.06506479     0.01813934     0.69249322    -1.01758497    -0.84922459
Ag     3.46450688    -0.09410080     3.38761499    -0.45802409    -0.12442293    -0.32419990
Ag     1.78417748     3.33222445     1.71143294    -0.37893150    -0.95174827    -0.40373114
Ag     5.24954447     1.66714575     0.00247733     0.32023172     1.04089457     0.02355602
Ag     1.82314714     6.56184117     5.09281390    -0.30709733     0.45858862     0.08844435
Ag     7.00444741     4.92107410     5.11084149     0.88576026    -1.32922901     0.20267071
Ag     6.96376763     1.53060917     5.07462170    -0.39552746    -0.46167575     1.23050140
Ag     3.52638590     4.87917131     5.10442844    -0.23337062     0.23379346    -0.52977802
Ag     5.28978343     4.97716592     3.42511547     0.42677096    -0.50907922    -1.35995454
Ag     3.54535451     3.36558583     0.01490585     0.03393819     0.16090828    -0.79771808
Ag     5.23811541     1.56804806     3.40530181     0.07981769     0.14741178    -0.78897044
Ag     3.49664249     1.50776588     5.08337907    -0.55499049     1.42138012     0.22124863
Ag     0.01814975     1.62985282     1.70108369    -0.38531301     1.42196870     0.14652920
Ag     1.82690703     5.04907203     0.00508987    -0.43569044    -0.85243425    -0.55955906
Ag     1.70064443    -0.04493666     1.68849174     1.94250280     0.54818129     0.36253032
Ag     5.29599463     6.58002649     5.10381714     0.49839996    -0.09062205     0.27319317
Ag     3.55103234     5.02251537     1.70656215    -0.02694374     0.20861961    -0.33614239
Ag     5.33107216     6.68356018     1.68143096    -0.16631247     0.40193712     0.95584455
Ag     3.50490571     1.65783488     1.70357908    -0.65688607    -1.87165913    -0.47482300
Ag     1.73000388     1.57687133     3.41494299     1.43090532    -0.12503388    -1.21869834
Ag     5.25693662     3.33335296     1.71580975     1.73473233    -0.31443817    -0.39384558
Ag     1.73966227     1.50727810     6.77066422     0.11314206    -0.96981650     0.78749538
Ag     0.09332960     6.63972890     3.39245805    -0.60983524    -0.76673826    -0.03914105
32
Lattice="6.97600 0.00000 -0.00000 0.10600 6.73500 -0.00000 -0.04300 -0.20500 6.79600" Properties=species:S:1:pos:R:3:force:R:3 pbc="T T T" energy=-32097.474196101204 virial="5.9157 -4.2598 2.7507 -4.2598 5.9264 2.4212 2.7507 2.4212 6.0640"
Ag     3.54258896     3.27543446     3.36403006    -1.31051117    -0.08430734     1.54111932
Ag     7.00848989     3.25984979     3.41996006    -0.67082722     1.13524774    -0.88448180
Ag     5.22656109     3.22200363     5.07862965     0.94295551    -0.42784794     1.31903394
Ag     1.77896570     3.19097007     5.08204410    -0.11571026     1.71271273     0.47889108
Ag     7.04988183     4.99203477     1.68612525    -0.83212449    -0.15946853     0.50539380
Ag     0.02842140     0.02394105     0.00668664    -0.96993631    -0.32350491    -0.98255994
Ag     0.00126484     3.13454554     6.79214199    -0.46664145     1.28295841    -0.25862518
Ag     3.53806403     6.52292522     6.77701605    -0.31763125     0.82447781     1.37378625
Ag     1.79745348     4.95117766     3.38996281     0.03043264    -0.10419222     0.80859135
Ag     5.30223902     5.06775785     0.01651114     0.76209724    -1.13878469    -0.82840979
Ag     3.46372518    -0.09166928     3.38608566    -0.51158207    -0.18899130    -0.18471548
Ag     1.78509738     3.33123413     1.71292305    -0.30257028    -0.89048462    -0.46190846
Ag     5.24967624     1.66813408     0.00029858     0.34562955     0.91594776     0.13155584
Ag     1.82187915     6.56156957     5.09400241    -0.20484017     0.49465344     0.00823941
Ag     7.00460152     4.92334132     5.11069643     0.87656094    -1.52509310     0.20084820
Ag     6.96668439     1.53128549     5.07526876    -0.52482150    -0.48543274     1.23225212
Ag     3.52617261     4.87689185     5.10576700    -0.22992146     0.34325218    -0.71739288
Ag     5.28944248     4.97753770     3.42483396     0.44389505    -0.53985446    -1.31251303
Ag     3.54623386     3.36558052     0.01387629     0.05034074     0.19835195    -0.62971036
Ag     5.23707422     1.56945864     3.40546665     0.16942596     0.06168226    -0.81984555
Ag     3.49739130     1.50813773     5.08642407    -0.65263043     1.31586304     0.08878006
Ag     0.01628513     1.63039415     1.70017170    -0.39848110     1.36585047     0.18506909
Ag     1.82902403     5.04874974     0.00363831    -0.51395476    -0.91508786    -0.44518523
Ag     1.69707167    -0.04521799     1.68858603     2.07318838     0.58432796     0.35115140
Ag     5.29454009     6.58113440     5.10265684     0.52860430    -0.09249028     0.28021773
Ag     3.55338062     5.02410636     1.70816174    -0.17099339     0.11015354    -0.39347341
Ag     5.33181154     6.68120644     1.68229194    -0.17194326     0.56442915     0.88425969
Ag     3.50518336     1.65715383     1.70317489    -0.66197740    -1.91807486    -0.52371996
Ag     1.72794075     1.57639951     3.41510624     1.52179741    -0.12320566    -1.23016318
Ag     5.25561572     3.33315791     1.71479481     1.79371124    -0.24372536    -0.43279066
Ag     1.73954696     1.50882554     6.77207824     0.12693930    -1.05134836     0.79584197
Ag     0.09207107     6.64023501     3.39370896    -0.64831328    -0.73541711    -0.07120188
32
Lattice="6.97600 0.00000 -0.00000 0.10600 6.73500 -0.00000 -0.04300 -0.20500 6.79600" Properties=species:S:1:pos:R:3:force:R:3 pbc="T T T" energy=-32097.441021247334 virial="5.9162 -5.3031 2.7234 -5.3031 5.9265 2.4203 2.7234 2.4203 6.0660"
Ag     3.54449847     3.27376143     3.36406589    -1.45262393    -0.00181563     1.52626095
Ag     7.00904148     3.25964248     3.41835132    -0.69281913     1.16576194    -0.73973492
Ag     5.22625468     3.22055116     5.07739940     1.08244058    -0.30007730     1.35767735
Ag     1.78214473     3.18935207     5.08323061    -0.26806415     1.81593072     0.34147223
Ag     7.05250688     4.99076629     1.68656501    -0.97008912    -0.17937360     0.44491759
Ag     0.02900657     0.02253647     0.00808914    -1.04235436    -0.25070738    -1.02146338
Ag     0.00105912     3.13389283     6.79310917    -0.45923742     1.39829418    -0.31701699
Ag     3.53551259     6.52135751     6.77611035    -0.22711389     0.91259864     1.46775048
Ag     1.79552611     4.95260453     3.38849188     0.19045185    -0.17730846     0.92340482
Ag     5.30222392     5.07037819     0.01479047     0.82515750    -1.25088030    -0.80415279
Ag     3.46288885    -0.08922794     3.38452285    -0.56028272    -0.25387332    -0.03762019
Ag     1.78600021     3.33015280     1.71438806    -0.22169688    -0.82382821    -0.51887686
Ag     5.24984054     1.66921569    -0.00189237     0.36990363     0.78653790     0.24016701
Ag     1.82057876     6.56133945     5.09520476    -0.10011432     0.53169377    -0.07359679
Ag     7.00483616     4.92549638     5.11056783     0.86203213    -1.71396943     0.19575961
Ag     6.96958610     1.53192561     5.07603378    -0.64851429    -0.50325999     1.22537344
Ag     3.52593630     4.87461812     5.10705579    -0.21866907     0.45689037    -0.90159613
Ag     5.28913769     4.97786501     3.42443130     0.45716944    -0.57106838    -1.25657988
Ag     3.54712743     3.36559300     0.01277874     0.06820919     0.23472206    -0.45209384
Ag     5.23603679     1.57089032     3.40555958     0.25829602    -0.02324010    -0.84617530
Ag     3.49808967     1.50863203     5.08951063    -0.74768066     1.20086056    -0.04595112
Ag     0.01436412     1.63106428     1.69926629    -0.40738752     1.29718942     0.22222984
Ag     1.83111816     5.04834159     0.00213070    -0.59402896    -0.97007713    -0.32300183
Ag     1.69364598    -0.04544986     1.68871293     2.19037115     0.61462604     0.33619315
Ag     5.29311704     6.58224621     5.10150895     0.55174053    -0.09500630     0.28499657
Ag     3.55573942     5.02572481     1.70974358    -0.31503136     0.00305757    -0.45128921
Ag     5.33254360     6.67887752     1.68324194    -0.17484610     0.72425153     0.80485706
Ag     3.50540454     1.65629276     1.70271914    -0.66067437    -1.94885152    -0.56940893
Ag     1.72599174     1.57591141     3.41516066     1.59963481    -0.11589472    -1.23189125
Ag     5.25444158     3.33293879     1.71372975     1.83486329    -0.17243412    -0.46969002
Ag     1.73944179     1.51029548     6.77357942     0.13508483    -1.12635715     0.80019687
Ag     0.09074036     6.64068056     3.39496726    -0.68090423    -0.69904317    -0.10331334
32
Lattice="6.97600 0.00000 -0.00000 0.10600 6.73500 -0.00000 -0.04300 -0.20500 6.79600" Properties=species:S:1:pos:R:3:force:R:3 pbc="T T T" energy=-32097.40452093651 virial="5.9169 -6.2882 2.6988 -6.2882 5.9268 2.4191 2.6988 2.4191 6.0678"
Ag     3.54628792     3.27207929     3.36423879    -1.58493574     0.07881680     1.50058888
Ag     7.00953388     3.25953861     3.41666763    -0.70945645     1.18579328    -0.58842537
Ag     5.22604372     3.21906401     5.07628434     1.21643562    -0.16983434     1.38750638
Ag     1.78531671     3.18788829     5.08445409    -0.42395216     1.90340793     0.20067945
Ag     7.05505896     4.98947493     1.68704701    -1.09958823    -0.19277970     0.38063260
Ag     0.02950139     0.02110190     0.00940753    -1.10940585    -0.17922014    -1.05036283
Ag     0.00081112     3.13336203     6.79405309    -0.44500760     1.50551307    -0.37446076
Ag     3.53292714     6.51986327     6.77533144    -0.13085558     0.99199184     1.55033925
Ag     1.79360551     4.95402313     3.38709591     0.34722318    -0.24754362     1.03057345
Ag     5.30228275     5.07290036     0.01298848     0.88037052    -1.35274616    -0.77648101
Ag     3.46199779    -0.08679631     3.38294831    -0.60294649    -0.31850402     0.11497105
Ag     1.78688798     3.32899180     1.71581436    -0.13797408    -0.75279958    -0.57374573
Ag     5.25003890     1.67037362    -0.00407349     0.39248119     0.65410056     0.34804270
Ag     1.81926244     6.56115580     5.09640694     0.00551068     0.56878559    -0.15570777
Ag     7.00514936     4.92750923     5.11045610     0.84268233    -1.89320746     0.18748327
Ag     6.97244517     1.53252401     5.07691279    -0.76503306    -0.51481546     1.20978599
Ag     3.52567910     4.87237321     5.10827061    -0.19961211     0.57370202    -1.07996570
Ag     5.28887227     4.97814287     3.42391379     0.46640857    -0.60241869    -1.19290028
Ag     3.54803190     3.36562659     0.01163477     0.08720760     0.26961386    -0.26769642
Ag     5.23501697     1.57232757     3.40557711     0.34501984    -0.10604786    -0.86736932
Ag     3.49872471     1.50923668     5.09260957    -0.83889361     1.07835174    -0.18148742
Ag     0.01239629     1.63185434     1.69837598    -0.41127146     1.21758011     0.25756402
Ag     1.83317020     5.04784425     0.00058606    -0.67519302    -1.01673849    -0.19451392
Ag     1.69039841    -0.04562785     1.68887067     2.29270865     0.63827843     0.31801447
Ag     5.29173587     6.58335545     5.10038048     0.56790967    -0.09852456     0.28784318
Ag     3.55808258     5.02735219     1.71129341    -0.45731559    -0.11078936    -0.50913495
Ag     5.33326390     6.67660110     1.68426921    -0.17511067     0.87892881     0.71874850
Ag     3.50556765     1.65525229     1.70220988    -0.65283515    -1.96324191    -0.61110757
Ag     1.72417578     1.57541030     3.41510488     1.66361764    -0.10298807    -1.22361862
Ag     5.25342572     3.33270302     1.71261687     1.85779398    -0.10146260    -0.50316298
Ag     1.73934818     1.51167226     6.77516040     0.13724472    -1.19404945     0.80010945
Ag     0.08934146     6.64106581     3.39622302    -0.70657626    -0.65840877    -0.13539461
32
Lattice="6.97600 0.00000 -0.00000 0.10600 6.73500 -0.00000 -0.04300 -0.20500 6.79600" Properties=species:S:1:pos:R:3:force:R:3 pbc="T T T" energy=-32097.365279459715 virial="5.9176 -7.1788 2.6799 -7.1788 5.9274 2.4174 2.6799 2.4174 6.0694"
Ag     3.54795104     3.27038911     3.36454807    -1.70671518     0.15714909     1.46431617
Ag     7.00996697     3.25954035     3.41491594    -0.72067715     1.19517370    -0.43129348
Ag     5.22594016     3.21754823     5.07528393     1.34378620    -0.03765762     1.40850064
Ag     1.78847912     3.18658237     5.08570660    -0.58328281     1.97493676     0.05709057
Ag     7.05753518     4.98815465     1.68756755    -1.22014799    -0.19910707     0.31328812
Ag     0.02990097     0.01963833     0.01064339    -1.17063494    -0.10956889    -1.06982253
Ag     0.00052091     3.13296173     6.79497186    -0.42386179     1.60383172    -0.43091193
Ag     3.53030669     6.51844472     6.77468484    -0.02890842     1.06197127     1.62120722
Ag     1.79169885     4.95543223     3.38577998     0.50025304    -0.31438026     1.12988797
Ag     5.30242120     5.07532365     0.01110053     0.92704603    -1.44414383    -0.74538334
Ag     3.46104456    -0.08437145     3.38136995    -0.63890260    -0.38308555     0.27243799
Ag     1.78777134     3.32775272     1.71720193    -0.05236082    -0.67768403    -0.62640835
Ag     5.25027430     1.67160073    -0.00624294     0.41291444     0.51887324     0.45461820
Ag     1.81793478     6.56102159     5.09760594     0.11142142     0.60545375    -0.23775137
Ag     7.00554110     4.92937008     5.11036020     0.81895501    -2.06202763     0.17623764
Ag     6.97526120     1.53308154     5.07790839    -0.87395820    -0.52024907     1.18566655
Ag     3.52540167     4.87015967     5.10939932    -0.17280150     0.69355793    -1.25164792
Ag     5.28864637     4.97836909     3.42328444     0.47158522    -0.63363029    -1.12200084
Ag     3.54895234     3.36568471     0.01045648     0.10703737     0.30280180    -0.07761543
Ag     5.23401899     1.57376821     3.40551686     0.42893243    -0.18620699    -0.88342587
Ag     3.49929009     1.50994366     5.09572006    -0.92589740     0.94896568    -0.31736556
Ag     0.01037383     1.63276090     1.69750080    -0.40944142     1.12776764     0.29123018
Ag     1.83518003     5.04725110    -0.00098994    -0.75732552    -1.05455337    -0.06027841
Ag     1.68732766    -0.04575009     1.68905840     2.37996879     0.65491962     0.29659263
Ag     5.29039331     6.58446580     5.09926773     0.57736866    -0.10315766     0.28899541
Ag     3.56040571     5.02898424     1.71281142    -0.59738961    -0.23050126    -0.56690612
Ag     5.33397494     6.67438319     1.68537029    -0.17297761     1.02780132     0.62622181
Ag     3.50567357     1.65402608     1.70164114    -0.63824251    -1.96116696    -0.64827002
Ag     1.72249296     1.57489543     3.41493866     1.71377965    -0.08419194    -1.20534442
Ag     5.25256765     3.33245603     1.71144878     1.86256464    -0.03086869    -0.53235289
Ag     1.73926606     1.51295413     6.77682748     0.13324140    -1.25416671     0.79508962
Ag     0.08786649     6.64139535     3.39747790    -0.72455984    -0.61415896    -0.16751108
32
Lattice="7.67800 -0.00000 -0.00000 0.10500 7.70500 0.00000 -0.17300 -0.11500 7.57100" Properties=species:S:1:pos:R:3:force:R:3 pbc="T T T" energy=-32213.908541241475 virial="15.5270 -18.6215 -26.1319 -18.6215 16.2037 3.4846 -26.1319 3.4846 15.8378"
Ag     3.81160137     3.82687536     3.76717452    -0.04429770    -0.47411698     0.22826225
Ag     7.64811489     3.78948478     3.80244426    -0.15997572     0.18596325    -0.06550583
Ag     5.65706804     3.77944901     5.68052988     0.12773249    -0.20145421     0.10371877
Ag     1.85170258     3.75605526     5.66608299     0.06289781     0.24563631     0.19857437
Ag     7.70015093     5.74676700     1.87166283     0.12921390     0.06668553     0.36191597
Ag     0.02335673     0.03194420     0.00110289    -0.11540978    -0.12881464    -0.10211593
Ag    -0.13372193     3.72025230     7.57393438     0.03818812     0.06927287    -0.07249698
Ag     3.77809074     7.58574306     7.55403815    -0.36590972     0.23793316     0.19977695