128
Lattice="10.952 0.000 0.000 0.000 10.954 0.000 0.000 0.000 21.851" Properties=species:S:1:pos:R:3:forces:R:3 energy=-687.76953125 virial="-8.06641769 -5.39681053 1.83624530 -5.39681053 -7.98213053 2.70004702 1.83624530 2.70004702 -5.43312359"
Si     1.39739151     4.19249172     1.40533621    -0.18353634    -0.40204191    -0.18866143
Si     1.32042222     4.08900320     6.88814646     0.29787436     0.17921317    -0.58038402
Si     1.26620452     9.63765762     1.44088707     0.27401912     0.08643372     0.08494127
Si     1.46333060     9.59359681     6.96111324    -0.33847040    -0.32484305    -0.31477660
Si     6.83033841     4.20397423     1.37742101    -0.03469504    -0.38453147    -0.12918074
Si     6.69307709     4.19223249     6.84968454     0.77308619     0.07595004    -0.05427039
Si     6.78797932     9.58587773     1.38235515     0.25265846     0.24186559    -0.06422659
Si     6.77665499     9.56257898     6.92168815     0.27549928     0.01965435    -0.33593044
Si    10.81391443    11.02153291     2.85687162     0.72431028    -0.11254979    -0.31870595
Si    11.03422988    10.95459422     8.26890922    -0.62676668    -0.09264180    -0.00437317
Si    -0.01060286     5.44067659     2.79241962    -0.30886394     0.15504196     0.04100288
Si    -0.02387781     5.49146800     8.14419102     0.16472596    -0.08168344     0.76148814
Si     5.43948544     0.11784630     2.77118003     0.22795533    -0.55471748    -0.24502641
Si     5.28138279    10.90385875     8.09973564     0.82714725     0.15063961     1.07744932
Si     5.54022297     5.55219934     2.77962715    -0.49473849     0.24293616    -0.23891810
Si     5.41288135     5.60240820     8.24250097     0.13385500    -0.15676451    -0.61976743
Si     1.47278705     1.35043149     4.13886724    -0.49242416     0.05795691    -0.24846807
Si     1.38759544     1.46669136     9.55646389     0.06202461    -0.09789146     0.07907201
Si     1.34674820     6.80869648     4.14170548     0.14607009     0.44186640    -0.13675892
Si     1.33197840     6.83057085     9.73216645    -0.11651722    -0.26715750    -1.15435433
Si     6.82386277     1.42179758     4.15655054     0.12663127     0.02299639    -0.25659245
Si     6.73985181     1.40529727     9.50620252    -0.00221657    -0.44871485    -0.65012050
Si     6.87282720     6.93312716     4.14319885    -0.00551924    -0.25094923    -0.28572091
Si     6.95114962     6.74406740     9.52216364    -0.00717409     0.38964474     0.24225745
Si    -0.00971000     2.78800651     0.03278791     0.01420096    -0.15262671     0.12383826
Si     0.06296475     2.68718560     5.47030513    -0.50638676    -0.09185207     0.21499842
Si    -0.05991408     8.16529035    10.98333652     0.20439687     0.33806229     0.42509970
Si    11.02158144     8.21122409     5.57543165    -0.10390534     0.03536060    -0.22542727
Si     5.48239484     2.72087512    21.88639516     0.12958221     0.05901342     0.14123788
Si     5.50328191     2.85507605     5.44105219    -0.79325390    -0.79570389     0.40441531
Si     5.50246528     8.20175746    10.71716329    -0.00354950     0.05913477     0.96399611
Si     5.49369135     8.22981990     5.48658541    -0.11750269     0.06699414     0.19625863
Si     4.14977955     4.16135266     4.08143220    -0.32137918    -0.26242128    -0.35872895
Si     4.09801340     4.28721700     9.57900642     0.12521710    -0.77719057     0.27547258
Si     4.20402216     9.64242067     4.17017204    -0.56998372     0.08584869    -0.14227901
Si     3.99224562     9.51789314     9.51330977     0.16865729     0.50809550     0.25782520
Si     9.52180945     4.01877265     4.15532594     0.59093356     0.40680271    -0.19929989
Si     9.66913700     3.97105469     9.49214650    -0.44167086     0.21656977    -0.41131908
Si     9.61594287     9.57360841     4.24345021    -0.40510142     0.19341996    -0.15593624
Si     9.58280799     9.53698748     9.61406087    -0.08465204     0.45165372    -0.22603080
Si     2.61752511    -0.00211292    -0.04962487     0.23824722    -0.07075045     0.32418203
Si     2.77114097    10.94170776     5.56011530     0.09891042     0.23944275    -0.11645837
Si     2.76196927     5.59204174     0.09743502     0.19169721    -0.56946778    -0.33326596
Si     2.69606718     5.40041772     5.42584481     0.15374056     0.44330674     0.46473253
Si     8.17964128    10.93526601    -0.04647451     0.08050725     0.05840177     0.20002574
Si     8.12064828    -0.00318131     5.54905968     0.25723904    -0.19989544    -0.22433202
Si     8.22105843     5.49090185     0.00893443     0.12440856     0.16149175    -0.17465392
Si     8.14112380     5.42920647     5.39940403     0.23824662     0.27841562     0.63251108
Si     4.03197285     1.33565756     1.33714398     0.29915106     0.09455650    -0.20427516
Si     4.02733724     1.45178034     6.96223329     0.45160860     0.18358174    -1.41685629
Si     4.09476004     6.97453222     1.42426461     0.33117044    -0.14343707     0.08847029
Si     4.03312798     6.92668959     6.78687354     0.52643204    -1.01428318    -0.33910948
Si     9.50303359     1.39198704     1.38866706     0.13876089     0.08091390    -0.12405673
Si     9.56349605     1.27920881     6.84969691     0.33172977     0.42412615    -0.05882898
Si     9.56469570     6.86898776     1.43841252     0.03822751    -0.08226970    -0.12312860
Si     9.57861049     6.79395218     6.77108717    -0.24553993     0.20776780     0.17400810
Si     2.75321296     2.72745617     2.65595337    -0.01764410     0.33143514     0.70052719
Si     2.82075787     2.92163873     8.21118697    -0.79750955    -0.51950371     0.49620715
Si     2.72913066     8.32875790     2.84165068    -0.13750958    -0.30381829    -0.25704896
Si     2.74546508     8.04507643     8.22745559    -0.81249762     0.86905402     0.46846700
Si     8.15711499     2.82507484     2.73534567    -0.03910603    -0.59761810    -0.01719301
Si     8.12988552     2.73614762     8.03932472     0.22472617    -0.06966322     0.86380649
Si     8.23511030     8.29615963     2.79406601    -0.05764163    -0.11886057    -0.13814469
Si     8.24913467     8.19396110     8.20132688    -0.01585509    -0.09781179    -0.08077085
Si     1.38164401     4.02178548    12.29676754     0.41728210    -0.08006354    -0.07241088
Si     1.47790307     3.98636362    17.72134224    -0.26918805     0.85580903     0.17553781
Si     1.43442140     9.55418149    12.34720314    -0.76995766     0.04937039    -0.16656899
Si     1.43725720     9.45628260    17.75660812    -0.21893656     0.46120161    -0.07279861
Si     6.82816727     4.02649927    12.21698570     0.17461188     0.18103832    -0.26336455
Si     6.97379879     4.06315364    17.69943821     0.00532802     0.12288412     0.29651886
Si     6.75262580     9.59837447    12.26352245     0.16204919    -0.30255321    -0.22961932
Si     6.88552730     9.58653021    17.75392381    -0.34734643    -0.16668485     0.07744440
Si    10.84055630    10.89870390    13.65849630     0.47941348     0.06921639    -0.26859754
Si    11.00741177    10.95060526    18.99735887     0.06108922    -0.25361481     0.62349868
Si     0.11354398     5.39473635    13.61279152    -0.49434608     0.57937908     0.41299081
Si     0.05048900     5.47773722    19.10112292     0.26685655    -0.50784558    -0.00595418
Si     5.53666216     0.04155780    13.71621343    -0.48333013     0.18127039    -0.61748922
Si     5.44523747    10.95136643    19.08107802     0.12678736    -0.03522169     0.17824006
Si     5.62550854     5.53092877    13.53295279    -0.92440951    -0.31691828    -0.03639866
Si     5.50568438     5.40400345    18.98532283     0.05357057     0.34291422     0.25630614
Si     1.24801603     1.29313879    15.02769732     0.54341668     0.37385303    -0.21553102
Si     1.29587743     1.40630507    20.46694815     0.44700009     0.16376069    -0.14858910
Si     1.35316943     6.84686526    15.07773093     0.19195315    -0.24534982    -0.46741906
Si     1.35942916     6.81108404    20.54802529     0.21687457     0.48879081    -0.37584460
Si     6.83801153     1.30668363    15.17013409     0.36613917     0.41419184    -0.66666883
Si     6.81061003     1.38251161    20.46107818     0.03089981    -0.24603464     0.21030259
Si     6.89603679     6.83480737    14.92671221     0.33007586     0.32200611     0.23483089
Si     6.87881657     6.79738955    20.36596451    -0.25446633     0.05560500     0.50656354
Si    -0.04784312     2.68471619    10.96989305     0.06273507    -0.18435258     0.07960559
Si     0.01266207     2.73036517    16.38040168     0.01631243    -0.25724104     0.12645695
Si    -0.00707031     8.22072072    21.93058142    -0.18630445     0.08997372    -0.53035545
Si    10.90535547     8.18610765    16.44121093     0.27283221    -0.19444096    -0.25402752
Si     5.38217667     2.66860059    10.86335376     0.02030411     0.75865126     0.25338566
Si     5.54238135     2.77188567    16.41829950    -0.54407704    -0.25427336    -0.18319398
Si     5.51251959     8.19470465    21.77395477    -0.29014885     0.23100114     0.20207751
Si     5.57310933     8.35578761    16.21400259    -0.27188468    -0.71564478     0.61682057
Si     4.21375933     4.05985087    14.85026594     0.31546700     0.53264868     0.83296347
Si     4.21191269     4.14255704    20.58242284    -0.38004866     0.48548335    -0.33364418
Si     4.12011594     9.77244017    15.04286594    -0.36353862    -0.94286811    -0.23405208
Si     4.04591428     9.60923401    20.45611987     0.34876424    -0.27266425     0.05500020
Si     9.69130232     4.05704102    14.95637428    -0.53872573     0.03877168     0.00261379
Si     9.62605145     4.13038559    20.47681098    -0.14050420    -0.00823957     0.16499034
Si     9.58868297     9.53094217    15.01553476    -0.33895665    -0.15269372     0.08008923
Si     9.60776960     9.61743359    20.38750237     0.04913971    -0.24595571     0.59519219
Si     2.65337477     0.05759227    10.95314219     0.39626390    -0.49585626    -0.19478637
Si     2.65139639    10.99489172    16.41212586     0.32338703    -0.22467640     0.11035372
Si     2.72963302     5.50319465    10.98902909    -0.08395751    -0.15888572     0.23404533
Si     2.77812946     5.36954946    16.25245075     0.17563856     0.25076711     0.33320665
Si     8.02364818    10.94632996    10.84927038     0.80508769    -0.02171025     0.25076169
Si     8.24452796    -0.06747681    16.43824737     0.12157045     0.13092978    -0.37739915
Si     8.36679250     5.30718196    10.85944396    -0.82936019     0.42658520     0.28241855
Si     8.31665801     5.44470247    16.28262987    -0.39411280    -0.10368404     0.10219821
Si     4.03741048     1.38595100    12.30482700     0.59964180    -0.43903118    -0.01098107
Si     4.08581714     1.37527162    17.75968643     0.17031303     0.29268268    -0.06112834
Si     4.13649588     6.92804065    12.21252106     0.22797589    -0.27905121     0.32434964
Si     4.18219278     6.83888190    17.54121625     0.06726119    -0.09644751     0.42718637
Si     9.41924085     1.31624111    12.32723427     0.33376718     0.02580862    -0.40295547
Si     9.61576030     1.30971553    17.71098141    -0.13076708     0.46957624     0.23726490
Si     9.55887774     6.73514631    12.32964767     0.41443050     0.01281263    -0.39471355
Si     9.58388364     6.72827828    17.74545864     0.03428850     0.64247835     0.07396409
Si     2.80432101     2.68953061    13.73139250    -0.99553370    -0.14267126    -0.42466801
Si     2.87671488     2.82813606    19.19929002    -0.65461087    -0.69292128    -0.11048095
Si     2.77468698     8.18037946    13.70238282     0.16158840     0.45865482     0.09133071
Si     2.84636718     8.11884389    19.06977851    -0.40791249    -0.04329727     0.20113818
Si     8.12081667     2.75421812    13.67364771     0.35988009    -0.43474215     0.29427943
Si     8.27637159     2.66957982    19.19819380    -0.01773808     0.30528635    -0.66947746
Si     8.23362974     8.21818728    13.52962604    -0.21308219     0.01386907     0.52036119
Si     8.22623497     8.20178114    19.09764141     0.23121011    -0.12762529    -0.22407973
128
Lattice="10.893 0.000 0.000 0.000 10.784 0.000 0.000 0.000 22.469" Properties=species:S:1:pos:R:3:forces:R:3 energy=-679.97637939 virial="2.66054726 14.53968239 -0.99907136 14.53968239 13.28766537 -4.48168945 -0.99907136 -4.48168945 -34.00464249"
Si     1.31518313     4.04980615     1.42599053     0.22346565     0.63916898     0.27331990
Si     1.36116832     4.12155782     6.89877164    -0.95528823    -1.08837903     1.16847622
Si     1.33755028     9.53673295     1.53296650    -0.60502172     0.05941980    -0.56334776
Si     1.24178776     9.42012944     7.12943753     0.34426641     0.54357624     0.01077408
Si     6.84181584     4.15487476     1.46235795    -0.09762957     0.09738323    -0.29070848
Si     6.94607854     4.09918276     6.98806348    -1.25988340    -0.70968282     0.28599349
Si     6.89880970     9.52526236     1.36843149    -0.81221253    -0.38793996     0.48921266
Si     6.79258548     9.42738824     7.14125261    -0.22424345    -0.03988878     0.08229815
Si    10.85846181    10.96225038     2.93288851    -0.77491355    -1.23252380    -0.74037755
Si    10.77132216    10.79402872     8.54313630     1.51701903     0.12732287    -0.30617982
Si    -0.09979484     5.51821487     2.90437562     0.68936002    -0.40568537    -0.37598318
Si    -0.05571467     5.15683826     8.53645424     0.05342375     0.90400159    -1.41572022
Si     5.46580697    -0.02216496     2.77306530    -0.41967672     0.68377572     0.35432187
Si     5.36188470    10.74387097     8.56508533    -1.39681840    -0.42516091    -2.50755978
Si     5.35047844     5.64249152     2.73292227     1.16409194    -1.34224391     0.79138052
Si     5.56675522     5.43794312     8.38797382    -0.77545077    -0.02041124     0.47630993
Si     1.24243663     1.46469117     4.22508281     1.01110101    -0.19820188     0.97406113
Si     1.31998308     1.32871938     9.98402849    -0.19138242    -0.47720754    -0.76437235
Si     1.35673795     6.95787077     4.20943022    -0.70331252    -1.27826309     0.33055186
Si     1.15855309     6.58009512     9.83033191     0.75120127     0.72570145     1.44734716
Si     6.76189642     1.39546722     4.26684023    -0.34682596    -0.36577317     0.11452758
Si     6.64357340     1.31761726     9.60480805     0.69651103     1.12016654     2.81353378
Si     6.85015723     6.79988955     4.19964911    -0.39803380     0.35439622     0.43786597
Si     6.96958485     6.81354893     9.92319635    -1.32889080    -0.18337974    -0.69637024
Si    -0.08516681     2.66085135     0.09196284     0.67111981     0.41783935    -0.46317914
Si    -0.09654798     2.56303549     5.74982665     0.56447089     1.35251689    -0.55574840
Si    -0.05034431     8.12032247    11.38073336    -0.36857206    -0.70656717    -1.57305217
Si    10.87795506     8.10690032     5.66000745    -0.60102957     0.19187436     0.30498081
Si     5.50926257     2.80679872    22.46721218    -0.46784478    -0.13452503    -0.18046670
Si     5.27165967     2.78410408     5.59026217     1.75492549     0.99234283    -0.79495919
Si     5.45348010     8.06489299    11.31739725    -0.39807829    -0.34738231    -1.51896429
Si     5.41269072     8.22836810     5.64843706    -0.25220674    -0.69544536    -0.25427842
Si     4.03817294     4.09322553     4.02834077     0.69033849     1.39327812     1.58631623
Si     4.04307047     4.10658976     9.95995738    -0.55642867     0.80256808    -1.25476384
Si     3.93723445     9.63120128     4.29053854     1.06245804    -0.48248160    -0.06180543
Si     4.03506168     9.46599195     9.95564798     0.40076089    -1.53666866    -0.91294748
Si     9.55391657     4.02880977     4.30704507    -0.58737814    -0.00638048    -0.16390216
Si     9.36789629     3.87429854     9.67692439     1.22031653     0.59361452     2.33377528
Si     9.41532736     9.50780113     4.36587973     0.90599406    -0.02894145    -0.57260364
Si     9.47328659     9.52356461     9.81848082     0.14213084    -1.52153695     0.64479947
Si     2.65739601    -0.05094001    -0.01724620     0.48596808     0.23242033    -0.07970496
Si     2.68049446    10.87832621     5.75576363    -1.05882657    -0.10588871    -0.52324450
Si     2.87035968     5.48702441     0.07530160    -0.65196043     0.18373434    -0.17029607
Si     2.58300649     5.44444818     5.55743937     1.01979172     0.15196832    -0.73016506
Si     8.17024515    10.80466462     0.02297361     0.23325467     0.15611273    -0.55205500
Si     8.10437247    -0.01443593     5.73162297    -0.26226702     0.62470722     0.04266157
Si     8.27671990     5.52793851    -0.02604779    -0.69998151    -0.38282770     0.45156354
Si     8.22965635     5.48536710     5.73559716    -0.27328044    -0.37129024    -1.44137585
Si     4.02363776     1.34128881     1.36233047     0.28863758     0.51843244     0.28050289
Si     3.97691068     1.57592817     6.87041979    -0.48070776    -1.10118413     2.83698654
Si     4.14201908     7.00858354     1.47663100    -1.39774489    -0.20977470    -0.30664796
Si     4.03298581     6.64861054     6.92239049     0.03128538     1.16424370     1.14159584
Si     9.45081261     1.35667080     1.40169788     0.26942354    -0.10579322     0.48777559
Si     9.55874487     1.27875859     7.13878047    -1.28207779     0.23489073    -0.20486523
Si     9.50666098     6.86387778     1.45565772     0.29505497    -0.01135963    -0.12495045
Si     9.49805644     6.72517486     7.11935488     1.47430372    -0.38093144    -0.23691322
Si     2.68211953     2.79102918     2.95758085    -0.79786468    -1.17813444    -1.97926462
Si     2.47206925     2.78708859     8.61778683     1.45922768     0.23047942    -1.05241656
Si     2.63876580     8.27130985     2.94170077     0.83305061    -0.02538699    -0.82293701
Si     2.46178937     8.12322397     8.66181730     1.33816886    -0.59923917    -1.11908722
Si     8.10464611     2.60954665     2.80683899     0.23222636     1.15614951     0.38898307
Si     8.07650061     2.61919585     8.49233399    -0.29925919    -0.39247659    -2.21987486
Si     8.17052972     8.23981990     2.84024773    -0.01673643    -0.43910569     0.07437218
Si     8.28062477     8.02479441     8.43927217    -0.95533162     1.02336013     0.42127293
Si     1.39617142     3.90022357    12.60207617    -0.97915494     0.19256020     0.65899742
Si     1.58294002     4.12804794    18.16939483    -0.61574501    -1.13447690     0.14267756
Si     1.19874239     9.36902505    12.76615007     1.88003421     0.07384145    -1.07409334
Si     1.40995264     9.39651141    18.22124218     0.01243267    -0.56544673    -0.06149042
Si     6.92466546     3.93478795    12.48527141    -0.40976429     0.08529754     1.27287078
Si     6.97486034     4.02780314    18.21560267    -0.65512443    -0.12677234    -0.35175729
Si     6.74958749     9.37545932    12.51654328     0.75207305     1.17377830     0.87355351
Si     6.75833191     9.33884492    18.28131761     0.56762350     0.45530427    -0.25950468
Si    10.84468304    10.74609722    13.91555521    -1.05326116    -0.09230442     1.77800584
Si    11.03827742    10.67945540    19.82191913    -0.53157985     0.40493017    -0.91232395
Si    -0.02457961     5.29594000    14.11421670     0.15238138    -0.67197561    -0.90551436
Si     0.21214606     5.22777021    19.71261691    -0.69694293     0.97201681    -0.16991988
Si     5.38476657     0.04196465    13.89034474     1.07034683    -0.98420262     1.40932047
Si     5.37891240    10.78938559    19.67816522     0.40947157    -0.07620521    -0.29340273
Si     5.42534808     5.29896834    13.84356627     1.48405647     0.37360317     0.63309819
Si     5.65670555     5.47832040    19.51345977     0.18426837    -0.42066169     0.89284575
Si     1.32834692     1.20277135    15.41781219     0.22272560     0.21704106    -0.00375726
Si     1.39940106     1.43159485    21.06832041    -0.69377947    -0.82531071     0.94675702
Si     1.56410977     6.51122576    15.25880363    -0.16942163     1.18523157     0.27061298
Si     1.44387490     6.81181741    21.04006531     0.13449743    -0.59534854     0.20196596
Si     6.92608446     1.34205624    15.36244409    -1.47688937    -1.25950134     1.01430178
Si     6.80270530     1.29134879    21.08988670     0.06644246     0.82602179    -0.39787799
Si     6.96837356     6.76361670    15.33887472    -1.18497574    -0.79092073    -0.01034770
Si     6.76683940     6.83005636    21.15114501     0.64798629    -0.11450567    -0.60678393
Si    -0.09303876     2.54087986    11.30225407     0.13154726     1.32049108    -0.72408354
Si     0.10597296     2.59415094    16.87802362    -0.19745532     0.66874981    -0.20697461
Si     0.00179569     8.14912386    22.42242316     0.39883280    -0.12584257     0.72191143
Si    11.08406474     7.83733770    16.67867452    -0.71061254     0.63316190     0.69846511
Si     5.36418910     2.84575215    11.22710885     0.56787884    -1.91881132    -0.18546808
Si     5.45872095     2.66269935    16.81328344     1.11198056     0.06151682     0.11310424
Si     5.40333785     8.23082039    22.51806614     0.99142647    -0.29108950    -0.11826047
Si     5.49188687     7.94058789    16.82880392     0.81503278     1.39251018    -1.21495581
Si     4.32113712     4.11234592    15.45350272    -1.04634845    -1.40649033    -1.04186952
Si     4.21067703     4.32162927    20.93950911    -0.38851696    -1.51274729     0.56365037
Si     4.05277626     9.37729351    15.44131719     1.39730418     1.17285728     0.87510455
Si     4.11906868     9.31503464    21.02335087    -0.82080632     0.89682359    -0.29455256
Si     9.44895531     3.86442681    15.38328673     1.55973196     0.49477658     0.76013428
Si     9.55255429     4.05974976    21.13946125     0.26629829    -0.05552838    -0.44226664
Si     9.38491739     9.15537618    15.45379936     1.45192039     0.92238057    -0.27861607
Si     9.50158974     9.43758732    21.11484181     0.07803104    -0.13477850    -0.51137161
Si     2.72464137    -0.08526939    11.19523221    -1.16699326     0.58390242     1.41024840
Si     2.78010749    10.77992427    16.90476113    -0.15172473    -0.12667038    -0.45623532
Si     2.67914988     5.41445187    11.45566149     0.11888459     0.24540098    -1.24999487
Si     2.93710021     5.35198575    16.69827919    -0.32684043     0.31688094     0.82726306
Si     8.08801613    10.78340069    11.08080436    -1.21715093    -0.18836582    -0.03584595
Si     8.26266056    -0.08552489    16.81357646    -0.55085850     0.09444128     0.53033501
Si     8.12950013     5.31143093    11.14195530     0.95689404    -0.22242835     0.04881592
Si     8.21380081     5.30275072    16.68976496     0.28903627     0.39292240     0.65685928
Si     4.11265658     1.25444689    12.54147546    -0.82077551     1.12584090    -0.28710338
Si     4.06995422     1.47003112    18.24250249     0.15445811    -0.96030116     0.21397303
Si     4.15921504     6.80967684    12.70057800    -0.87974751    -0.26738733    -0.09776973
Si     4.32653817     6.65464898    18.15001799    -1.63235116    -0.29600254     0.31624460
Si     9.50631764     1.09690937    12.41398946    -0.43474334     1.02893209     1.79806566
Si     9.64567078     1.31925999    18.31453440    -0.03943020    -0.57853222    -0.05632563
Si     9.60153812     6.52711732    12.51684134    -0.59812754     0.59719932     0.82256031
Si     9.61530040     6.59957796    18.23638301     0.53338969    -0.21001244    -0.31772006
Si     2.65782746     2.54428787    13.97629319     1.06550872     0.38422894     0.65354669
Si     2.68400264     2.60996303    19.70134693     1.22772145     1.89090014    -0.51886255
Si     2.83187757     8.27202571    14.01663399    -1.12324655    -1.92169964    -0.47506219
Si     2.85743270     7.94637100    19.49371130    -0.28301835     0.55315936     0.44099581
Si     8.20783834     2.56472888    14.08354455     0.26265374     0.10649730    -2.34743452
Si     8.27351814     2.74150366    19.61777854    -0.16093341    -0.66101980     0.65584040
Si     8.14245664     8.06291071    13.86934623     0.50398779    -0.49509197    -0.35517767
Si     8.28819498     7.99652971    19.58032953    -0.57672691     0.42984855     0.54612768
128
Lattice="10.908 0.000 0.000 0.000 10.873 0.000 0.000 0.000 21.993" Properties=species:S:1:pos:R:3:forces:R:3 energy=-687.09875488 virial="6.82412052 -2.97074747 -0.29227695 -2.97074747 11.40773678 2.04546380 -0.29227695 2.04546380 -2.95353723"
Si     1.33872633     4.23226068     1.38833273     0.19938704    -0.63720644    -0.29208681
Si     1.30233972     4.03464847     6.88610473     0.37518746     0.81778961    -0.22474182
Si     1.32226152     9.63439563     1.31258431     0.48874998     0.04199954     0.61350346
Si     1.26445511     9.56747698     6.90042982     0.09289897    -0.44833308     0.12172899
Si     6.83312078     4.16291659     1.36913932    -0.07869286    -0.24427882     0.17547636
Si     6.77280364     4.06772889     6.83081821     0.38644114     0.67242080     0.22093932
Si     6.81943051     9.62057399     1.43360892     0.02822136     0.16693848    -0.17171524
Si     6.72498694     9.53160248     6.87846482     0.05372296     0.03195845    -0.03889199
Si    10.83440467    10.87702574     2.76493320     0.60232955     0.61143458    -0.02253724
Si    10.85413982    10.85992067     8.29333389    -0.63965726    -0.04377313    -0.15734020
Si     0.00763742     5.50560394     2.74016902    -0.42071074     0.26623678     0.20074496
Si    -0.04635327     5.34020833     8.28888441     0.16507518     0.25301069     0.32581630
Si     5.36078926     0.11414940     2.77411898     0.27670249    -0.36483455    -0.13018277
Si     5.28176242    10.87402454     8.14973280     0.77157289    -0.22672081     1.34033966
Si     5.51962057     5.51759189     2.74393998    -0.75009644     0.44870687    -0.11896104
Si     5.40716383     5.40663142     8.25237781     0.05452502     0.24228726    -0.43541890
Si     1.24927482     1.44856172     4.20001880    -0.17492916     0.21400258    -0.67528355
Si     1.29115936     1.26401623     9.64610664     0.38975364     0.60759503     0.16833034
Si     1.24090546     6.91377738     4.12591283     0.58813691     0.22751395     0.13087964
Si     1.33301029     6.75769782     9.68624946    -0.06686710    -0.21183938    -0.88849115
Si     6.71200394     1.37435751     4.14618106     0.42028791     0.60281181    -0.03484312
Si     6.70393425     1.36243013     9.72413631     0.19792451    -0.53907955    -1.56759131
Si     6.75379608     6.92314688     4.18278562     0.29363203    -0.36062571    -0.28380886
Si     6.66561503     6.80947422     9.58507641     0.81273073    -0.19923326     0.33913404
Si     0.05763491     2.75723031     0.03955020    -0.25703979    -0.05352245     0.07189719
Si    -0.14053273     2.86044492     5.54221450     0.05709678    -0.82535946    -0.13313343
Si    -0.07860448     8.05164968    10.90932407     0.37147635     0.26787215     1.08678007
Si    10.75974771     8.26525274     5.54691776     0.57522941    -0.27934274    -0.18333837
Si     5.43598971     2.84032172    21.94310229     0.60476249    -0.30874783     0.36461625
Si     5.44922145     2.84107730     5.45504757    -1.10045779    -0.61225718     0.29586446
Si     5.40762948     8.11690882    11.03035269     0.02074382     0.04874441     0.24748510
Si     5.33472551     8.17281268     5.53491729     0.18276411     0.44487384    -0.01082208
Si     4.06072599     4.26995864     4.12577894    -0.09996776    -0.86732829    -0.42731208
Si     4.00779828     4.13536444     9.53774838     0.22923830    -0.55726689     0.85160363
Si     4.04401243     9.64406693     4.19136281    -0.46853778    -0.04021567    -0.01178643
Si     4.05945231     9.38546277     9.60074550    -0.30459651     0.94712490     0.35791451
Si     9.49886787     4.17914491     4.09665510     0.28257883     0.13082023     0.13080755
Si     9.47952177     4.01236754     9.73128068    -0.39181799     0.25693113    -1.10389578
Si     9.50493449     9.62844199     4.10763228    -0.64948237    -0.33807528     0.55874491
Si     9.52283963     9.40711383     9.65200749    -0.45296389     0.93054748    -0.32246649
Si     2.85122497     0.03231400     0.04415588    -0.37134156     0.20481130    -0.11811087
Si     2.49794329    10.97527805     5.56568798     1.24408078    -0.09481072    -0.01790847
Si     2.73220091     5.48623829    -0.00993968     0.47520214    -0.23530382     0.08097478
Si     2.70815464     5.58309872     5.48433821    -0.45826799    -0.21252027     0.51434493
Si     8.21953949    10.94389810    -0.03511692    -0.23507720    -0.02999240     0.28290749
Si     8.05892463     0.08336148     5.55234133     0.17765588    -0.47751576    -0.34837008
Si     8.19344470     5.49939419     0.06348045     0.54988450     0.07533672    -0.34930009
Si     8.18519270     5.51543851     5.45353769    -0.24293375     0.12079322     0.75490981
Si     4.14503567     1.51395589     1.37082823    -0.40645361    -0.34566668    -0.06473759
Si     3.94945363     1.42467965     7.02130820     0.33455172     0.10115281    -1.84560680
Si     3.99505399     6.92547921     1.34083238     0.87370640    -0.16590871     0.32455617
Si     4.05695476     6.90072303     7.01384570     0.15332752    -0.94416499    -1.06630790
Si     9.54484172     1.41160574     1.45187981    -0.22586957     0.27903920    -0.41716567
Si     9.41909017     1.36276966     6.90320848     0.73089862     0.04008855    -0.10963334
Si     9.59930148     6.92291628     1.37297080    -0.30112231    -0.34970552     0.18401855
Si     9.63598241     6.79735457     6.96415567    -1.24169946     0.16521855    -0.30036163
Si     2.62994306     2.74244756     2.66300102     0.38766736     0.58289719     0.95543838
Si     2.64568105     2.74512500     8.27972390    -0.53978431    -0.05345212     0.45930874