128
Lattice="10.268 -0.121 0.504 0.000 11.718 -0.618 0.000 0.000 20.148" Properties=species:S:1:pos:R:3:forces:R:3 energy=-622.92950439 virial="-134.35048442 0.14101731 0.67930982 0.14101731 -135.75185956 -1.45784606 0.67930982 -1.45784606 -134.26369379"
Si     1.25438047     5.40873730    -0.26508048    -0.04421574    -0.17162111     0.01620544
Si     3.82265329    10.65833317    19.77868114     0.11558143    -0.11419563     0.39720151
Si     5.16083543     2.79721865    12.86569033     0.03914147     0.05868232     0.04345199
Si     3.70527159     3.44080994    10.45100314    -0.16052550    -0.28133056     0.30051014
Si     9.21300010     7.86955809    14.96352298     0.17000511    -0.05057538     0.19949806
Si    -0.08680496     8.26679796    19.90198975     0.01790804    -0.00580599    -0.04298986
Si    -0.17693685     3.84297083    15.90069750     0.29446918     0.21404892    -0.00417446
Si     1.38936827     3.81928697    11.75553077     0.36220211     0.07748650     0.21286353
Si     6.16773251     9.36921487    18.35755309     0.16547735    -0.00647169    -0.21425822
Si     6.21774283     6.98728658    14.29990528    -0.09232676     0.07617092    -0.08913042
Si     6.61328027     1.70072178    20.52307675    -0.03437123    -0.02915845    -0.03635883
Si     6.08459252     0.49788066    15.93602859     0.07768293     0.00645327    -0.24330297
Si     2.11092087     8.59914098    18.40736025    -0.30716163     0.09244306    -0.14703509
Si     0.56149175     5.94284250    13.81285339    -0.14916442     0.05964775    -0.08123880
Si     2.28447129     5.29078384    16.27026656    -0.07259504     0.27113861     0.10556798
Si     2.61781594     1.61078032    20.26861687     0.16170131    -0.03643870    -0.23348163
Si     6.02503140     5.72814470    17.15503907     0.04895914     0.08563755     0.12065899
Si     6.28832320     5.36889377    11.84154762     0.17133412     0.30126238     0.04546204
Si     7.33469201    11.70470689    17.97947918     0.01757344     0.10122921     0.04329143
Si     5.61557057    -0.58456143    11.21583766     0.13765484    -0.14550003     0.14174153
Si    -0.34015466     5.89341510    17.98537374    -0.15446016    -0.00132450     0.02618213
Si    -1.56323994     4.73928175    12.97233717     0.08877932    -0.13792600     0.04347470
Si     9.49055006    13.21317345    18.49515967     0.07968882     0.11555783    -0.00432093
Si     9.40684051    13.89691906    13.21321185    -0.07351869    -0.01479214     0.03342201
Si     6.62235586     9.54366697    15.78894522    -0.28254795    -0.01678201    -0.08161592
Si     6.60658382     9.15329652    12.52296282    -0.10397216    -0.16239130     0.02812720
Si     4.80118654     4.37052202    14.85641034     0.04572880    -0.27471074     0.10375977
Si     7.81990244     3.44312984    11.33142660    -0.03856999     0.04361720    -0.23265915
Si     2.06177172     9.95233270    14.80067598    -0.03878456    -0.02083707    -0.09113087
Si     1.18221319     0.26446827    13.94011460     0.16801275     0.17274389     0.22830671
Si     2.77026074     9.56792333    11.62533543     0.09845242    -0.27311057    -0.00515006
Si     4.53104156    10.07707523    13.97374036    -0.04841638     0.29550529    -0.06389792
Si     8.33578706     5.53173636    16.11537137    -0.02489260     0.13611901    -0.17031544
Si     6.94468966     2.93584467    17.89194620    -0.18538117     0.29045075     0.07925703
Si     7.01943671     0.57464186    13.47416381     0.13286544     0.03358328     0.21052560
Si     1.18364887     7.66237495    16.28900836     0.13521090    -0.11897179     0.05351842
Si     0.69589659     8.35427246    12.63564077     0.03718013    -0.08659782    -0.21954942
Si     1.71056451     3.05384407    18.16083208     0.03955175    -0.16624555     0.12196126
Si     1.86957297     2.88362945    14.25214720    -0.32341221    -0.10965987    -0.12523912
Si     8.22798280     7.78706639    18.03243355    -0.08107646    -0.12594426     0.34302467
Si    10.05659183     5.17227803    10.80532870     0.17113645    -0.09566499    -0.06545579
Si     9.03988800     0.79145940    16.36187800     0.25907242    -0.26104948     0.09091569
Si     8.12394055     0.72094373    10.68025617     0.09921723     0.16961762    -0.24179193
Si     4.56434934     8.14666106    16.66227552     0.22775401     0.11592557     0.01864460
Si     4.67094093     7.81688008    11.74328597    -0.11901173     0.21493235     0.04336402
Si     4.06062887     2.26500483    16.34328768    -0.02531064    -0.19583601    -0.12161136
Si     4.54238330     3.76737913    18.96148403     0.10566130     0.10054247    -0.13045385
Si     3.47935785     5.31241654    12.71969989     0.05350970     0.05627889    -0.00619486
Si     6.67490831     7.11034799     9.69518792    -0.13860130    -0.01787546    -0.12103925
Si     8.68435263    -1.13552587    14.33512801    -0.12712477     0.08004063    -0.22273555
Si     7.48847615     9.64461397     9.93878557    -0.03386755     0.00581427     0.21240944
Si     3.25728064     7.24960554    14.25310921     0.17527665    -0.02202348     0.17075779
Si     4.20718532     6.09165149     9.09175537    -0.14125746    -0.18118095    -0.17890912
Si     1.52488001    12.55844197    15.83501063    -0.06847515     0.14958262     0.13611299
Si     1.81000024    -1.15964847     9.61372434     0.06377131    -0.05820179    -0.13769928
Si    11.46668393    11.13449401    18.56496201    -0.14448148    -0.15411295    -0.07520228
Si     9.90070669    10.00653059    11.35223653    -0.07767905    -0.07712251     0.11823591
Si     8.31718110     4.09130465    19.54081679     0.10323875     0.02073666     0.01983789
Si     7.03080377     3.08197739    15.24923884    -0.08801279     0.10305414     0.15223087
Si     3.46063784    10.57273738    16.70617066    -0.20477977    -0.13801220     0.16925153
Si     3.97402738    12.63680156    13.24708646    -0.19394302    -0.02058911    -0.07866821
Si     3.11486823     0.95354428    11.41794332    -0.04327156     0.07111147     0.06408352
Si    -0.55041632     3.07840684     8.95285916     0.10271688     0.12201835    -0.10955211
Si     9.17540454     8.73694335     7.19635856     0.03171166     0.16317844    -0.01443847
Si     9.29709067     9.79451133     2.44152663    -0.03525229     0.15579422     0.08286582
Si    10.70583513     8.19697755     4.75648572    -0.12147403    -0.10021211     0.04443830
Si    -0.10492191     7.94874402     9.25407557     0.01040154     0.01190510    -0.00126629
Si    -0.98039995     1.81578201     4.51192763     0.22136514    -0.10666213    -0.13432777
Si     0.06183362     3.30762099     0.43431191    -0.12121099     0.06730136    -0.07844783
Si     6.95854495     7.28576212     7.05165871     0.34565744    -0.04980697     0.11586861
Si     7.07835220     8.15111263     1.83115751    -0.02354132    -0.04957058     0.06714581
Si     5.56445829     1.38245577     9.86703155    -0.23470572    -0.14851677    -0.19139284
Si     6.12105833     2.66326274     4.08909333    -0.03882622     0.17423858     0.04689623
Si     2.01172518     6.81019002    10.65035216    -0.20281890     0.07903200    -0.12196897
Si     1.42795221     7.14381611     2.00804728    -0.20169291     0.18307087    -0.00517680
Si     0.40058039     1.04377391    11.45671924    -0.00570796    -0.10420593     0.23594648
Si     0.97742517     1.97471643     2.67466269    -0.17571169     0.00798536     0.11896141
Si     5.35722340     0.34595132     6.25822180    -0.29243040    -0.14919499     0.16592447
Si     6.74838295     4.24746167     8.94959116     0.17808421     0.08172585     0.11566035
Si     6.38072790    10.34898649     7.35998804    -0.04829630     0.06286877    -0.26422620
Si     4.61271556    -0.02779783     2.65590585     0.01323956    -0.10147510    -0.24839154
Si     1.91481581     4.81048996     8.19877703     0.05360895    -0.05100162    -0.25230056
Si    -0.61343108     5.28772275     3.81074182    -0.18333779    -0.01554244    -0.22363444
Si    11.10334139    12.59599447     6.39825172     0.01792112    -0.12842554    -0.14292236
Si    11.09571779    11.18042402     4.13948851     0.03813311    -0.05418513     0.16383187
Si     6.51560958     9.47798459     4.81981312     0.07892635     0.01256120     0.17728877
Si     6.42703581    10.36909332     0.88529134     0.07051530    -0.11910873    -0.00023626
Si     4.55337776     5.54197091     6.61704720     0.03647064     0.12410664     0.00701699
Si     6.39713655     4.31757834     1.14664942     0.13932292     0.05090657    -0.09162113
Si     1.90827527     9.87734088     6.28982917     0.25411147    -0.06743491    -0.02707464
Si     0.91456357    11.47057861     0.50687714     0.13225713     0.07371259     0.05258296
Si     1.56535460     3.74748904     5.86513597    -0.00655384    -0.07046881     0.26329887
Si     6.21631982     5.75816237     3.41705229    -0.13475427    -0.09246972     0.07476098
Si     4.55146109     9.23540616     9.28845060     0.07188944     0.15111397     0.13366596
Si     3.61526804     5.29403761    21.27821100    -0.19880721     0.13826285    -0.25722003
Si     4.69671670     8.06667542     3.06299874     0.09824076    -0.14192101     0.02857759
Si     6.01302089     3.06663029     6.75290973    -0.02036320     0.01581801     0.09214287
Si     8.16022164     7.60991625     4.29541160     0.06044319     0.15586627    -0.15585350
Si     8.31940476     3.59311478     2.98227509    -0.11062452     0.00934473     0.05102916
Si     2.15102825     7.86202233     8.17730782    -0.13312742     0.09117302    -0.01123847
Si     2.50633522     9.56681574     1.67210120     0.05595754     0.07565820    -0.03239224
Si     1.68400553     1.80247689     8.97145797    -0.11296431     0.09732332    -0.18561132
Si     1.77815828     4.64645638     2.92044673     0.18800190    -0.01519899     0.13790758
Si     8.78201967     5.83073232     8.43981080    -0.09655244     0.01808901     0.06341194
Si     8.92288386     6.10371489     1.64544574     0.12728608     0.27787986     0.07874006
Si     7.78319170     1.10254516     7.96234027    -0.17207576    -0.14205386     0.00998006
Si     8.68465558     0.81252837     1.71265125    -0.17329580    -0.14695510    -0.12846461
Si     2.98882304     6.89477523     4.72936650     0.26128998     0.13513771    -0.10862601
Si     4.39335286     7.85979856     0.39369633     0.08389468    -0.38771027     0.18297234
Si     3.84274725    -0.02391985     8.30322529     0.25420067     0.19668642     0.05118970
Si     4.31070027     2.44432672     2.02109963     0.23506451    -0.39891794    -0.05837569
Si     6.56781946     6.61436549    -0.47562840    -0.04956491     0.11809295    -0.02210119
Si     3.93783895     4.32543620     4.37674802    -0.13024592     0.18538938    -0.03918597
Si     7.57143642    -0.12997828     3.88170221     0.31418100    -0.10695070    -0.04094110
Si     8.86691084    10.48870360    -0.38259144    -0.05453239     0.08319572     0.16509125
Si     0.59851604     6.52461854     6.60578875     0.16715993     0.10010999     0.17627531
Si     3.66199723     6.14127530    -1.79477065    -0.10396779    -0.10082066    -0.22250400
Si     3.02044764    13.23535411     4.24028683    -0.20844910     0.05356383     0.27181837
Si     4.53404058     0.99197158    -1.48866217    -0.16137625    -0.02595163     0.09328027
Si     9.93996066    11.01451204     8.35428132     0.14101069    -0.07279290    -0.16008653
Si     8.57540225    11.02210297     5.73245443    -0.12629864     0.09071162     0.09587282
Si     9.19903568     3.43165703     6.90091973     0.23032029    -0.20386350     0.02472206
Si     7.24232354     5.22945562     5.71048657    -0.14713630     0.13530955    -0.06031806
Si     4.21296562     8.29872533     6.31052435    -0.17934674    -0.16222560    -0.00505544
Si     3.52553906    10.48082152     4.08465785    -0.03096972     0.21928379    -0.37798244
Si     3.53908380     2.61117790     7.32790388    -0.13083944    -0.10924178    -0.16255020
Si     8.48897713     7.07256610    12.06825164    -0.11240226    -0.20968126     0.04411015
Si     9.69397066    10.01030499    16.56593264     0.02328073    -0.03320358    -0.12603632
128
Lattice="9.487 -0.112 0.471 0.000 10.869 -0.577 0.000 0.000 18.811" Properties=species:S:1:pos:R:3:forces:R:3 energy=-630.47192383 virial="108.73212056 1.59861591 -2.10378305 1.59861591 107.51401721 5.70112739 -2.10378305 5.70112739 103.63270956"
Si     1.09469965     4.77964441    -0.43043991     0.01335169     0.37847939    -0.55625534
Si     3.58600452     9.72323379    18.74547275     0.15229276    -0.33540353    -1.47568691
Si     4.83544499     2.68120577    12.01549192     0.76509500     0.11575672    -0.87133491
Si     3.30933357     2.90183235    10.05708075     0.85606551     0.53470951    -1.08626854
Si     8.65531809     7.35874841    14.02780307    -1.01253963     0.12625034    -0.50288630
Si     0.06516483     7.77262215    18.52570798    -0.10156403    -0.03683582    -0.00279927
Si    -0.03345700     3.87450405    14.77071503    -0.06016176    -0.00878340     0.83753037
Si     1.59418575     3.69003197    11.30632966    -0.97544241     0.34702957    -0.05957967
Si     5.85124907     8.75538117    17.16244980    -0.18891010     0.22581680     0.61285484
Si     5.63914955     6.62368721    13.17464122     0.42971453    -0.65828621     0.74203300
Si     6.18305837     1.71013285    19.02945670    -0.71344942     0.13023527     0.45235795
Si     5.74797348     0.59304951    14.75064222     0.34132296    -0.28448486     0.89329994
Si     1.83428016     8.06172154    16.89550959     0.36917517    -0.20984897     1.05554795
Si     0.35064146     5.65320611    12.83375090     1.24405408    -0.78968489    -0.47090474
Si     2.12062482     5.01584859    15.33091953     0.45740274    -1.49649966    -0.63419610
Si     2.56690753     1.54971778    18.99968635    -0.22719839     0.47033095     0.84407055
Si     5.61055711     5.53058764    15.92035977    -0.42537543    -0.18574011    -0.06615654
Si     5.91132697     5.07515884    10.87813980    -1.45956385    -0.35797876     0.12157089
Si     6.66206416    10.95593502    16.90006900    -0.28898415     0.07387919    -1.13685834
Si     5.37350158    -0.52753249    10.41220874     0.02362158     0.49791580     1.19467926
Si    -0.52233759     5.48756966    16.89389126     1.02406430     0.33808786    -0.89886296
Si    -1.34955665     4.21061091    12.18199253    -0.69139612     0.48948935    -0.44243592
Si     8.72179447    12.23378452    17.23549934    -0.02197823    -0.00633517    -0.36598760
Si     8.56484904    12.78389744    12.47043484    -0.41619074    -0.59995633     0.51394796
Si     5.94545768     9.05869861    14.70111024     1.22257543     0.32817468    -0.73395514
Si     6.00649588     8.46778122    11.83515958     0.04817525     0.49287167     0.19514096
Si     4.53103963     3.84628265    13.96095081    -0.84985733     1.07222366     0.54927796
Si     7.34345513     3.28480118    10.42450347     0.00637671    -0.90421647     0.57937849
Si     2.03677381     9.16732112    13.76826767    -0.52620304    -0.90139967    -0.39412507
Si     1.27133417     0.29190897    13.28375217    -0.26323351    -0.83243620    -0.85025203
Si     2.59956209     8.49792722    10.73952590    -0.24285515     1.82050622     0.10401860
Si     4.18347218     9.68260476    13.01748661     0.51658088    -0.71535158    -0.34257081
Si     7.62373132     5.43584971    14.85941241     0.10695180    -0.12023681    -0.28200459
Si     6.23379461     2.96352917    16.82898407     0.45608804    -0.50093627    -0.62336361
Si     6.42228462     0.67989503    12.56018083    -0.29269624     0.76611042    -1.09774673
Si     1.06226621     6.96404301    15.07194143    -0.70912552     0.65404487    -0.46736211
Si     0.61510864     7.76350853    11.63008552    -0.47110724     0.02468219     0.29091072
Si     1.53738707     2.48939159    16.98531987     0.41921115     1.58556294     0.56905925
Si     1.39163743     2.61197768    13.32836494     0.41024417     0.50358456     0.40983462
Si     7.44815635     7.03027847    17.07731466     0.41896939     0.88880825    -0.44234020
Si     9.64188799     4.75554883    10.16763790    -0.09499703     0.07734852     0.76103294
Si     8.47578772     0.43275794    15.39987973    -0.88864243     1.01856136    -0.65565008
Si     7.77453566     0.95558036     9.72803149     0.28589025    -0.47131777     0.67751676
Si     4.34513770     7.77265741    15.59709718    -0.88613641    -0.80664527     0.12070418
Si     4.35292848     7.16505007    10.91755651     0.48217893    -1.13418269    -0.13694409
Si     3.81064042     1.85013228    15.06608356    -0.65794241     0.22179571     0.37336469
Si     4.20657195     3.62098940    17.48395914    -0.98148847    -0.40331411     0.58973658
Si     3.30113862     5.14548320    11.87877207     0.54909956    -0.04015487    -0.26432207
Si     6.03995664     6.59916142     8.87578498    -0.49511617     0.29454610     0.74805570
Si     7.86047616    -1.07263849    12.92991994     0.85605472    -0.53475720     0.72649717
Si     7.02840046     8.79294121     9.60860795     0.52393514    -0.58603656    -0.54049051
Si     3.09028282     6.72253352    13.53278477    -0.13915336     0.51058364     0.60447681
Si     3.84299758     5.48022380     8.29036878     0.77127576     0.32756585     1.34242678
Si     1.30138421    11.73009124    14.90367730     0.55007505    -0.03072269     0.05971927
Si     1.86650043    -1.07863635     8.78786921    -0.18801004    -0.04539435     0.73652494
Si    10.33218087    10.25060514    17.22126536    -0.76869500    -0.44608274     0.33790034
Si     9.27630022     9.14336346    10.43999913     0.15435542     0.72401345    -0.16359788
Si     7.64147444     3.83600195    18.34093565    -0.09082176     0.13691911     0.08156288
Si     6.61597258     2.98356041    14.54545218     0.63745153    -0.08649047    -0.35896361
Si     3.00362344     9.84861068    15.85542279     0.42528760     0.05019058    -0.13797115
Si     3.59972665    11.69304984    12.16020868     0.03339958     0.35505390     0.43264347
Si     2.80752483     0.71627471    10.60559193    -0.55667949    -0.92885208    -0.63445067
Si    -0.33067041     3.12807513     8.36081865    -0.35799918    -0.20452398    -0.45324403
Si     8.40407803     8.28395614     6.61928512     0.42145371    -0.40955418    -0.48959196
Si     8.69609772     9.22859026     2.19624232     0.71237981    -1.03107536     0.16878192
Si     9.75445416     7.41554676     4.37968227     0.77386069     0.34244871     0.69342709
Si    -0.13299165     7.25204461     8.60968539    -0.73139292     0.51501691     0.43426114
Si    -0.65074916     1.73297466     4.07071140    -0.76670450     0.36672541     0.04049584
Si    -0.17163982     2.99242450     0.24762411     0.23542017    -0.78241116     1.21993089
Si     6.73615707     6.68207519     6.69296764    -0.70008308     0.80699980    -0.71577573
Si     6.46581487     7.61688834     1.76968850     0.18487221    -0.50442266    -0.37507474
Si     5.03124698     1.34294265     9.17741106     0.67556107     1.25038075    -0.17428473
Si     5.66287630     2.73406436     3.99619958    -0.41718388    -0.55229354    -0.11736985
Si     1.86921824     6.42841648     9.75091083     0.69329262    -0.47740036     0.48467839
Si     1.36345064     6.69185355     1.77423530    -0.25361794     0.15539674     0.00141842
Si     0.45468146     0.86906336    11.10391178    -0.40000647    -0.52595258    -0.87129223
Si     0.77630603     1.87379125     2.30506777     0.62216169     0.39501709    -0.44664431
Si     4.84836043     0.16394283     5.96425952     0.21653715     0.34517640    -1.43311393
Si     6.53182604     3.90832711     8.29014398    -1.29875362    -0.58994436     0.02908034
Si     5.95978099     9.47858551     6.83967263    -0.30587304    -0.40673172     1.65262961
Si     4.29937311    -0.17441705     2.48897149     0.33130893     0.07321165     0.30483714
Si     1.96556199     4.49812062     7.59725792    -0.78131449    -0.44218624     0.68124968
Si    -0.75284122     4.84847232     3.37739934     0.46602121     0.57474202     0.54477942
Si    10.13057655    11.46981609     5.87551193    -0.33617538     0.13136184     0.76644814
Si    10.18451118    10.39333646     3.87607770     0.18497756    -0.95591110    -0.79800540
Si     6.15889820     8.75956685     4.71679927    -0.62625235    -0.34112233    -1.08508945
Si     5.86642734     9.57341587     0.84031387     0.90504014    -0.06259940    -0.75973982
Si     4.23129279     5.05151329     6.09955824     0.15000537     0.18839592    -0.37693280
Si     5.91767737     4.23504094     0.99281890    -0.78940612     0.27872348     0.31197476
Si     1.95064246     8.97050150     5.77552922    -0.19481228     0.49475116    -0.78027022
Si     0.99329395    10.69440876     0.28696222     0.10611618    -0.10885252     0.39047033
Si     1.44617767     3.40729082     5.70688234    -0.24715665     0.52267092    -1.50845575
Si     5.75659913     5.27348258     3.28973851    -0.58093816     0.04147080    -0.55433363
Si     4.21292959     8.63705235     8.73725182     0.02352357    -0.44213381    -0.52884901
Si     2.95373003     4.75493385    19.62825319     0.85054326    -0.35575616     0.58412188
Si     4.50923545     7.39436817     3.09855071    -0.11859120     0.51435602     0.06406086
Si     5.30010472     2.90400858     6.39365914     0.50871176    -0.42294732     0.32069710
Si     7.57054555     7.12435440     3.76482987     0.10654454    -0.32859421     0.21980590
Si     7.53055502     3.28223355     2.59831850     0.14101635    -0.60053623    -0.29074332
Si     1.97492714     7.38493695     7.62725231     0.79415035     0.05612453    -0.19174585
Si     2.26346206     8.96432044     1.60438666    -0.70276076    -0.41522163     0.31268591
Si     1.29188307     1.55256935     8.20743499     0.15617812    -0.62951797     0.80270016
Si     1.58979714     4.29138449     2.93411343    -0.80666792    -0.32839853    -0.53480220
Si     8.16173016     5.42532859     8.07572603     0.46113515    -0.19974308     0.06214552
Si     8.28484155     6.06383454     1.46021195     0.21518345    -0.46929103     0.02953954
Si     7.03240013     1.09894478     7.54135764    -0.62452650     0.84572971    -0.29585949
Si     7.84741378     0.69295713     1.55683464     0.19883233     0.92645574     0.28129458
Si     2.78621219     6.45731820     4.36223595    -0.94321752     0.17962167    -0.24774738
Si     3.92468191     6.95091460     0.75062664    -0.61760002     0.55773175     0.09701564
Si     3.73117039    -0.02012012     7.92838383    -0.46444052    -0.63048208     0.00892173
Si     4.45784018     1.90895223     1.87993592    -0.28113124     1.66011381    -0.32197732
Si     5.78264764     6.23461391    -0.37498528     0.18821277    -0.35257608     0.36208743
Si     3.52963405     4.22343117     4.02806791     0.78497809    -0.79295027     0.13606045
Si     7.33943971    -0.11227210     3.73715121    -1.34707570     0.44967380     0.51075959
Si     8.07583404     9.65842810    -0.23681849     0.38033685    -0.86706960    -0.73200786
Si     0.47667044     6.13884275     6.31369867     0.43367994    -0.14965461    -1.34771419
Si     3.50035184     5.77367644    -1.81502932    -0.40728474     1.05524230     0.71556324
Si     2.58349134    12.37149305     4.19958456     0.39019948     0.00010595    -1.31032848
Si     3.99854091     0.88786774    -1.40034688     1.05689692    -0.39427456    -0.52702671
Si     9.21054729    10.10600662     7.69222492    -0.00164449     0.61200500     0.84305525
Si     7.79894659    10.42427814     5.50784617     0.62163538    -0.27996975    -0.47918350
Si     8.62563697     2.98504943     6.48996142    -0.70280182     0.21671337    -0.16097698
Si     6.69041609     4.82924447     5.35419062     0.65804613    -0.54342949     0.07416688
Si     3.92476632     7.54064015     6.10041680     0.89727491     0.22278312     0.40973186
Si     3.19271388     9.94734187     3.62945239    -0.39540446    -0.80675459     1.43412161
Si     3.10635703     2.11203644     6.92598566     0.78190678     0.54873890     0.58786964
Si     7.72899473     6.32792806    11.21916776     1.03137529     0.73149312     0.24474008
Si     8.94163693     9.14075977    15.28697396    -0.02337333     0.22214144     1.22122121
128
Lattice="9.883 -0.117 0.490 0.000 11.334 -0.601 0.000 0.000 19.599" Properties=species:S:1:pos:R:3:forces:R:3 energy=-636.66314697 virial="-63.23552685 -1.09052239 1.27923210 -1.09052239 -64.84851585 -1.58417879 1.27923210 -1.58417879 -66.74633447"
Si     1.15256781     4.95611156    -0.59542703     0.03559193    -0.19596902     0.12793714
Si     3.77413822     9.97130332    19.35122814    -0.07179917    -0.13932338     0.26434970
Si     5.24592961     2.88590504    12.30574920    -0.16074921     0.06561450     0.06212091
Si     3.56536685     3.05407172    10.34801307     0.03950578    -0.13085528     0.12821142
Si     8.80941036     7.78735691    14.49291971     0.07110665     0.13847300     0.15619922
Si     0.07563219     8.10604639    19.30181115    -0.10965770    -0.06884787     0.12270224
Si    -0.00680950     4.16314552    15.59592964     0.11470292     0.17989531    -0.03582326
Si     1.61165625     3.95490378    11.87555427     0.34051096     0.02354153     0.12726332
Si     6.06901212     9.22188047    17.98693655     0.00242066     0.15899397    -0.15121445
Si     5.95126865     6.80386742    13.82104094     0.02871279     0.07014270    -0.15437774
Si     6.31748670     1.80880924    19.84835040     0.06483481    -0.13070570     0.05115311
Si     6.09929284     0.62664178    15.49297630    -0.00340083    -0.01237324    -0.13428208
Si     1.96878582     8.35250912    17.77449901    -0.03725887    -0.07472869    -0.13840018
Si     0.61347968     5.74973794    13.25280252    -0.14977533    -0.01464244     0.07438669
Si     2.38637710     4.96565491    15.86264757     0.20640582     0.22999464     0.03616584
Si     2.68274667     1.75112350    20.00826714     0.09191880    -0.08303706    -0.15823445
Si     5.75767851     5.77398318    16.55220676     0.00827582    -0.07870317    -0.10064954
Si     5.95031480     5.24517302    11.33429364     0.25809491     0.08670194     0.12201652
Si     6.82228922    11.51243639    17.35164359    -0.17954120     0.06007790    -0.01688766
Si     5.63186823    -0.40841488    11.13970985     0.20148416     0.06337076    -0.21320370
Si    -0.39726938     5.81464895    17.38277650    -0.11231824    -0.01055651     0.02637499
Si    -1.53765591     4.43763201    12.60625388     0.12366569     0.04185656    -0.02901401
Si     9.08218027    12.75786916    17.83511887     0.08175623    -0.11904030    -0.09865794
Si     8.79269933    13.16640774    13.16116624     0.07481234     0.06710636    -0.03634955
Si     6.42714676     9.52660160    15.11965436    -0.23346908    -0.15197514    -0.11250132
Si     6.26067938     8.89541474    12.42504169     0.02861307    -0.18819851    -0.09390992
Si     4.54463648     4.17800524    14.73161462     0.05275945    -0.15988924     0.02001757
Si     7.66568326     3.22156852    10.94075226    -0.10074858    -0.02341269    -0.12289330
Si     2.05356298     9.32112837    14.20427258     0.20042732     0.01901675    -0.07762180
Si     1.32457354     0.12234276    13.75113347     0.14164121     0.12030210     0.13173260
Si     2.72099391     9.17282631    11.18816184     0.11789405    -0.09027721     0.01994789
Si     4.44216049    10.03909874    13.46195431    -0.20342207     0.16093846    -0.08199074
Si     7.91009326     5.70077733    15.35439197    -0.10433617     0.02734005    -0.09789897
Si     6.49303585     3.09843345    17.48741422    -0.08749769     0.26067182     0.24519600
Si     6.61146341     0.95002757    12.85713525     0.09337277     0.05323948     0.23770836
Si     0.97187325     7.33447219    15.58927253     0.15980379     0.07078593     0.17805365
Si     0.51782494     8.09835285    12.12725312    -0.01274791    -0.04584391     0.02475862
Si     1.71124305     2.88349190    17.86065952     0.19892225     0.01852127     0.07156590
Si     1.40850789     2.78862796    13.99594006    -0.23882145    -0.11602919    -0.07283016
Si     7.80916862     7.48521795    17.76811954    -0.02286152     0.04932481     0.06309889
Si    10.08932555     4.95248127    10.77429251     0.00639619     0.05187432    -0.13018155
Si     8.70069629     0.57056581    15.91935254     0.13994537    -0.18689235     0.03319885
Si     8.25987053     0.94114176    10.19421995     0.00192261    -0.01094071    -0.04050890
Si     4.41112247     8.01458002    16.28091124     0.27920413     0.05917737    -0.04019574
Si     4.54798871     7.29095217    11.29907233    -0.11934151     0.33777800     0.04213215
Si     3.85552619     1.91193321    15.70832010     0.15502834    -0.03469680    -0.12994324
Si     4.16350856     3.72667473    18.27591273    -0.02087733     0.08832192    -0.04404990
Si     3.56823250     5.37722011    12.38960641    -0.03678888     0.08111022     0.35933959
Si     6.15404068     6.94663915     9.34212965    -0.00561772    -0.01800023    -0.10260050
Si     8.38290538    -1.24537915    13.56012023    -0.14406937    -0.14530492     0.10581871
Si     7.48457512     8.95584301     9.97507031    -0.23301424     0.22209440     0.05063530
Si     3.22953831     7.12004444    14.32397655     0.01071367    -0.13164741     0.02285724
Si     4.14159802     5.64113169     8.86277869    -0.12596293    -0.45031494    -0.10267819
Si     1.46335760    12.28135193    15.61445414     0.12629613     0.10917862     0.08908165
Si     1.91614188    -1.20761029     9.28261107     0.09549756    -0.09286052    -0.11284856
Si    10.48675986    10.56563609    17.99539582     0.05486216     0.22962123     0.06250718
Si     9.75385108     9.69875541    10.82026211    -0.13181356    -0.14542641     0.18232767
Si     7.95699963     4.08626262    19.15339300    -0.03963647     0.10812870    -0.05448770