128
Lattice="12.614 0.000 0.000 0.000 12.664 0.000 0.000 0.000 24.936" Properties=species:S:1:pos:R:3:forces:R:3 energy=-595.12634277 virial="-356.85214233 0.31794548 0.67864895 0.31794548 -362.16699219 0.49443927 0.67864895 0.49443927 -341.61779785"
Si     1.63700613     4.86107068     1.65616535    -0.03126451    -0.08453250    -0.30718160
Si     6.32645666     9.42126437    24.84683421     0.01100336    -0.14799856     0.45898885
Si     6.28218290     3.19125001    18.58441017     0.03368865     0.35932696     0.17411895
Si     6.32144538     3.11589515    12.59948689     0.07982627    -0.08067325    -0.78402960
Si    12.65165127     9.45989842    18.66953506    -0.12464271     0.24344200     0.03671099
Si    -0.00968209     9.46172936    24.76540266    -0.04593390     0.58211726     0.27566627
Si     0.11475601     3.11522578    18.62743616    -0.52363610     0.30074939     0.21550637
Si     0.15076078     3.23097379    12.49806000    -0.56017458    -0.25046676    -0.03380498
Si     7.91234441     7.74898373    23.37347914    -0.18253011     0.39847800    -0.05444288
Si     8.01309903     7.92318933    17.18160566    -0.16153426     0.19938809    -0.26077133
Si     7.85276709     1.50676200    23.38282721     0.10586984     0.22504169    -0.23029011
Si     7.83261327     1.59540625    17.04250819     0.22738001    -0.12524243    -0.03040086
Si     1.62098869     8.02709557    23.16623671    -0.14581209    -0.21811892     0.52019024
Si     1.60817837     7.95604767    17.09373646    -0.32938156    -0.03839172     0.26583698
Si     1.51153236     4.64642787    20.33539179     0.22177854     0.18817510    -0.25073835
Si     1.52679381     1.43753267    23.38754396     0.01591836     0.32082301    -0.17091519
Si     6.30500893     6.20889953    21.82691729    -0.06497224     0.36488149    -0.10050678
Si     6.56929458     6.36690269    15.56108366    -0.69554561    -0.20500216     0.07233636
Si     6.38754014    12.65274475    21.69512662    -0.28851688     0.00816446     0.42168581
Si     6.28409556     0.00595234    15.51971560    -0.12167896    -0.12841371    -0.02851000
Si    -0.01835472     6.30026764    21.83018459     0.05706665     0.06087434    -0.13051990
Si    -0.17992475     6.41591505    15.60986352     0.56472898    -0.28225055    -0.11308549
Si    12.33948757    12.64926832    21.72717073     0.50844693     0.17563128     0.24137835
Si    12.53279553    12.85206870    15.59393515     0.19886440    -0.61357653    -0.04241610
Si     7.89002157    11.04653311    20.25649795     0.06765898     0.10531683    -0.26899555
Si     7.79228148    11.05376983    13.92911074     0.06048171     0.34182489     0.36766201
Si     7.81717544     4.79497781    20.20538393     0.16705284    -0.46697411     0.07543060
Si     7.99016446     4.67824705    13.92362947    -0.12983043     0.20918486     0.40428352
Si     1.48698468    11.13169535    20.14262063     0.25097024    -0.11111085     0.08954843
Si     1.69339529     1.69105938    17.05057041    -0.12512046    -0.19309282     0.28292805
Si     1.41324602    11.14234188    14.15330449     0.53578430    -0.14969113    -0.49395132
Si     6.29214303     9.50844176    18.61734178     0.12485076    -0.16442563     0.09228977
Si     9.53038795     6.30610302    18.74485275    -0.19590011     0.09814705    -0.09295216
Si     9.30479528     3.12645709    21.72724050     0.27789021     0.17971799     0.21887204
Si     9.48796326     3.06539588    15.49489541    -0.14475170     0.28119013     0.00868843
Si     3.20399501     9.66695421    21.66411841    -0.18273744    -0.54223377     0.06385469
Si     3.09905637     9.46232640    15.50248322    -0.02829190     0.07968433     0.41408855
Si     3.09791504     3.02716391    21.82258722    -0.03398478     0.38943097    -0.04116340
Si     3.32180785     3.30639101    15.64281914    -0.51327616    -0.20024689    -0.19145153
Si    11.12286216     7.94310154    20.33175526    -0.20639732    -0.23442726    -0.24629372
Si    10.96242812     7.93316269    13.95500147     0.13915031     0.21534355     0.12151273
Si    10.90146951     1.68268044    20.18951190     0.28106719    -0.53781641    -0.12670821
Si    11.03750487     1.56665309    13.95013231     0.02134687     0.23428479     0.18528688
Si     4.74497816     7.89756145    20.12062868    -0.01108283     0.35897377     0.45560133
Si     4.68131546     7.71589716    14.07141835     0.23206061     0.59026843    -0.21254256
Si     4.71490534     1.66579922    20.11469189     0.08369200    -0.48449925     0.18449116
Si     4.66441625     4.74697284    23.43287845     0.37949643    -0.10980116    -0.10540140
Si     4.82377904     4.96094645    17.14553717     0.05174497    -0.58989131    -0.00476079
Si     9.41427850     6.38846417    12.33249553     0.02632049    -0.22169584     0.27233848
Si     9.49305008     0.03225057    18.60164330    -0.44138008     0.02784050     0.31575325
Si     9.42862748    12.67846735    12.41176397     0.18139964    -0.05245340     0.06201450
Si     3.12065318     6.41546353    18.76148190     0.15510136    -0.18189940    -0.50115633
Si     3.19467934     6.14289140    12.50719788    -0.02612022     0.37974450    -0.03330731
Si     3.20780003    12.64593324    18.60735873    -0.28369105     0.34677243    -0.12826630
Si     3.05240499    -0.03557507    12.62940440     0.09335339     0.16023746    -0.41768658
Si    10.89212650    11.17705957    23.43055288     0.23677060    -0.53263175    -0.46744454
Si    10.97330458    11.09143395    17.16139466     0.30320922     0.29159820    -0.21838199
Si    10.97985636     4.68510828    23.35890031     0.07462375     0.21943921     0.02170411
Si    10.99256311     4.65724638    17.10965272     0.22161597     0.24753778     0.04282077
Si     4.81807273    11.04788148    23.32840064    -0.14329714     0.19897439    -0.18991590
Si     4.68923291    11.08971781    17.03252140     0.17787413    -0.08186699     0.08021946
Si     4.70527451     1.51766793    14.05426090     0.19695781     0.33600873     0.22243518
Si     1.57715493     4.82774566    14.15912059     0.19422507    -0.28166872    -0.37655175
Si     9.37150407     9.49510792     9.49277681     0.02714548    -0.01802100    -0.46615249
Si     9.53770082     9.64333262     3.21158366    -0.13724214    -0.37286460    -0.22108623
Si    12.57398108     9.36793528     6.27859082     0.26758158     0.48360896    -0.15650666
Si     0.11255389     9.51251213    12.43664568    -0.48497498     0.00428246     0.31463036
Si     0.04551539     3.17795474     6.15444737     0.22094256     0.06142191     0.27308464
Si     0.03988889     3.19602188    -0.01427006    -0.19999990    -0.21510991     0.17692602
Si     7.66325256     7.98463427    10.90520823     0.49604493    -0.28163663     0.13817793
Si     7.85425038     7.95525255     4.78859476     0.05514016     0.11222456    -0.27410829
Si     7.94739412     1.69141432    10.86142677    -0.07951833    -0.35873434     0.24374482
Si     7.94294745     1.50227118     4.79472481    -0.17238861     0.22847497    -0.22007707
Si     1.69673535     7.84780221    10.92714402    -0.29934585     0.07112151     0.08123849
Si     1.69068527     7.88563720     4.68723635    -0.50702119     0.08259515     0.15103805
Si     1.55886465     1.53072917    11.00411283     0.11183815     0.22771278    -0.04891329
Si     1.62318237     1.52192331     4.75258927    -0.02797463     0.12008217    -0.20206282
Si     6.34953473     3.14901737     6.37982090    -0.27040976    -0.12119183    -0.43352881
Si     6.32211435     6.18923013     9.37098770    -0.28513271     0.24661440    -0.16009533
Si     6.38278148    12.77268953     9.42273832    -0.23957674    -0.33543906    -0.33982515
Si     6.40087477    -0.13355652     3.11603723    -0.25775266     0.21289948     0.33064532
Si    -0.05836044     6.29144008     9.32910388     0.17918383     0.03072708     0.10508718
Si     0.03605246     6.50459820     3.11460949     0.23618636    -0.27097198    -0.05978890
Si    12.53339998    12.73505316     9.40804400     0.38913015    -0.31238133    -0.09539522
Si    12.68534315    12.71531817     3.09781781    -0.06546458    -0.18602362     0.16006929
Si     7.90339585    11.02097364     7.87979904    -0.07088523     0.43576658     0.01613748
Si     7.86605136    10.89234485     1.59958613     0.19088665     0.74343085    -0.16876803
Si     7.90049155     4.74721508     7.73138345     0.19986066    -0.06326365     0.24971831
Si     7.87033740     4.89731991     1.75626321     0.00088562    -0.45862144    -0.41956753
Si     1.49507326    10.99372504     7.85218637     0.14855374     0.08319066     0.18034925
Si     1.59250472    10.97706701     1.36903437     0.10179098     0.21930623     0.48564607
Si     1.52056943     4.69350158     7.95962954     0.18379183    -0.00010222    -0.60428572
Si     6.16129331     6.37104222     3.32106257     0.30305570     0.08888663    -0.19266516
Si     6.09968465     9.50890570    12.52133627     0.40289760    -0.15415180    -0.35710132
Si     6.37770738     3.22295349    24.96311806    -0.27662581    -0.14871471     0.22475341
Si     6.31340641     9.53347354     6.29656014    -0.07895292    -0.33004677     0.05150115
Si     9.55246677     3.17109970     9.22712799    -0.06932998     0.21264923     0.17290336
Si     9.50739481     6.39229023     6.09097087    -0.17119601    -0.16999754     0.43136460
Si     9.44772522     3.18354498     3.20008549     0.31038666     0.09368877    -0.07304039
Si     3.17196304     9.46849627     9.42803693    -0.07770267    -0.12296161    -0.25419578
Si     3.15339240     9.53452564     3.09054432     0.03664599    -0.23556511     0.01227672
Si     3.13287872     3.07716932     9.39919155     0.10983487    -0.07098639     0.02201242
Si     3.23246497     3.08080229     3.20166959    -0.17920354     0.24889868     0.26504755
Si    10.90600051     7.89203017     7.73778524     0.35840333    -0.06671821     0.23203632
Si    11.02383646     8.14083712     1.54089888     0.18815094    -0.64099920     0.02305097
Si    11.16560046     1.66532527     7.68601987    -0.63747776    -0.26803020     0.35602257
Si    11.04413023     1.59088290     1.61584719    -0.05202977     0.07183159    -0.13324687
Si     4.68611526     7.76785669     7.86351529     0.21170276     0.27855283     0.14607580
Si     4.70290005     7.96769092     1.63345726     0.09952772    -0.06108754    -0.16550776
Si     4.77709965     1.55323308     7.79794792    -0.09472978     0.03530915     0.49617177
Si     4.88268168     1.55390003     1.65289323    -0.21578416    -0.08613425    -0.23564905
Si     9.45613964     6.32524987     0.03498158    -0.04984431     0.17370215     0.08678641
Si     4.59976748     4.68916797     4.88645064     0.54427695    -0.01053231    -0.19723719
Si     9.45517045    -0.00091996     6.28893213     0.52160406    -0.00761995    -0.00303121
Si     9.39967688    12.63706194     0.04404644    -0.00091152    -0.03120580     0.04569153
Si     3.12762385     6.23604435     6.41367067    -0.12017455     0.02210167    -0.23533273
Si     3.21219739     6.45238551     0.05122311    -0.20361656    -0.21371236    -0.07075088
Si     3.10340444    12.56558750     6.37559569     0.16270632     0.22387020    -0.47201556
Si     3.20892785    -0.10199952    -0.00601046    -0.01941481     0.01227371    -0.18904096
Si    11.07893858    11.07332436    10.98274839    -0.30286968     0.16504070    -0.21601096
Si    11.19692638    11.18645287     4.73908839    -0.59167039    -0.27896285    -0.09945977
Si    11.08712486     4.74328963    10.84622182    -0.09351492     0.08438167    -0.01268055
Si    11.19845309     4.83442954     4.54631963    -0.55311239    -0.10249564     0.41686761
Si     4.68913229    11.15285045    10.88785468    -0.08235012    -0.23985995     0.53264815
Si     4.68828494    11.07311097     4.71034936     0.20940916    -0.08091183    -0.02353122
Si     4.78808510     4.53271372    10.87550372    -0.12625718     0.37980831     0.41701427
Si     9.43851449     9.63494529    15.57570983    -0.06898993    -0.57188344    -0.08892909
Si     9.42869734     9.48081788    21.85488744     0.07809523     0.02496450     0.04117259
128
Lattice="9.853 0.000 0.000 0.000 9.728 0.000 0.000 0.000 20.438" Properties=species:S:1:pos:R:3:forces:R:3 energy=-607.27062988 virial="502.61001587 1.58991957 -5.41728354 1.58991957 501.44534302 -14.88933659 -5.41728354 -14.88933659 506.26660156"
Si     1.28238306     3.66137113     1.02556661     2.50431371     0.00232066     2.42273903
Si     4.92039654     7.16535770    20.61242134     0.79662323     2.50725102    -0.82455349
Si     4.92890348     2.50988558    15.27354241    -0.37942815    -2.07670116    -1.05831552
Si     5.08092530     2.26439184    10.04416752    -0.03021561     0.98025316     2.56711292
Si     9.63886312     7.43440243    15.31010488     0.54168797     0.54814470     0.05259864
Si     0.00697436     7.67600025    20.34234232     0.09241369    -0.69088781     0.80312824
Si    -0.21337297     2.51520025    15.38378349     2.02744603     0.26147449     0.70869482
Si    -0.19524283     2.55024324    10.22018688     2.02547431    -1.21544147     1.19387269
Si     6.06578037     6.05034295    19.12995783     0.58090687    -0.70658898     1.61355948
Si     6.31813774     6.18448769    13.93245544     0.83610839    -1.23073518    -0.66580462
Si     5.97167226     1.39656094    19.21184701    -0.04416358     0.01316909     0.14139754
Si     6.13983316     1.22538714    13.86878460    -1.59806585     1.02450204    -0.75621045
Si     1.12613725     6.22970433    19.07566073     0.36939904    -0.60035604     1.74774528
Si     0.99402239     6.05116371    14.07547625    -0.50887156     0.06555130    -0.50455421
Si     1.32299612     3.60756545    16.49950273     1.18800330     0.82115793    -1.40572238
Si     1.10220599     1.18592520    19.21577200    -0.06067125     0.70678127     0.77254987
Si     4.90593777     4.81324095    17.81843047    -1.32312512     0.40807343    -1.88253641
Si     4.92905298     5.02262012    12.79569155     2.05771208    -0.02741685    -1.34539700
Si     4.99952086     9.78167050    17.83336504    -0.06303626     0.83917630    -2.01430631
Si     4.79775010    -0.06900966    12.66982004    -0.27064419     1.63069928    -0.17953959
Si     0.09247129     4.78873350    17.84499604    -0.92546403     0.02377403    -0.39386889
Si    -0.04111248     4.74418943    12.57812583    -0.52017373     2.23000336     0.45528215
Si     9.83434150     9.85742872    17.77165764    -0.13398427    -1.12985969    -0.86462706
Si     9.98216833     9.71852441    12.67421348     0.87146199     1.61566687    -0.18638363
Si     6.12514502     8.41909770    16.45934605    -1.55222178    -0.49824613     4.42402649
Si     6.09546120     8.59818381    11.37396810    -1.35707295    -0.76812005     0.26907513
Si     6.21399599     3.55817948    16.50639435     0.79619443     1.47933102     1.80338299
Si     6.25387440     3.74439459    11.46774790    -2.36118746    -0.64263964    -0.06700544
Si     1.28735184     8.69433139    16.38006834    -1.70486963    -0.85757303     1.16926253
Si     1.17438194     1.49976033    14.03714525    -2.88320017     0.28895041    -0.88527870
Si     1.34913016     8.41664070    11.41386470    -0.33778763    -0.04733651    -0.37537169
Si     5.07233256     7.26219447    15.15036570    -1.44235802    -0.65908527     0.08296064
Si     7.35694624     4.85401789    15.21214340    -0.96765876    -0.48675561     0.32386810
Si     7.37622875     2.37555209    17.91165609     2.06701660     0.89157718     0.77297187
Si     7.48041795     2.47622279    12.71136546    -0.39096224    -0.74700773    -0.65513623
Si     2.33043843     7.35991282    17.71388331    -1.70018220     1.23465168     1.38100970
Si     2.42302118     7.24592408    12.84050038    -0.58979899    -1.05902719     0.95243859
Si     2.37802684     2.29291140    17.88435299     1.27883887     0.35016286     0.09093382
Si     2.39990919     2.63214595    12.77568988    -0.09282598    -0.20943043     1.34844756
Si     8.58157923     5.97057743    16.50654243     1.34444213    -0.08113972     1.44460464
Si     8.51602042     6.13620470    11.43276483     1.90389848    -2.57012081     1.38626933
Si     8.48593780     1.13001501    16.41216681    -1.28484678    -0.60451680     1.35060585
Si     8.59592089     1.17960216    11.37375483     1.13274491    -0.55839103     2.65214634
Si     3.63351668     6.40023058    16.46738907     1.61648190    -3.76963878    -0.87530583
Si     3.71951737     6.15753249    11.49245950    -1.83117938    -0.50615305     0.01985759
Si     3.60621789     1.18146711    16.37835161     0.32021284    -0.47230446     1.34894371
Si     3.81613845     3.47747099    19.18616376    -0.21271004    -0.80447590    -1.28352058
Si     3.82890170     3.65843000    13.87639063     0.63611460    -1.37071753     0.51027894
Si     7.43744601     4.92185567    10.15415253     0.25860745    -0.54874301     1.16315830
Si     7.06666316    -0.02697164    15.27207765     3.11531878     1.13924515    -2.45676541
Si     7.38057153     9.70506346    10.21054132     0.57853466    -0.56200147    -1.35751796
Si     2.60920332     4.91980950    15.00492189    -1.05550075     0.90288317     2.80404091
Si     2.55075371     4.84461203    10.16495097    -0.81237262     1.56853998     2.76484227
Si     2.33575839     9.82420101    14.98962416     2.22526073    -0.79145992    -0.46637154
Si     2.47436935     0.14398645    10.29976941     0.39126572     0.50460422     1.29001296
Si     8.49576520     8.48884167    18.85355528    -0.22958298     1.36582732     0.89088511
Si     8.55301874     8.66122881    13.85251627    -1.54582453    -0.00027126     0.97323751
Si     8.67614986     3.83803050    19.38044995    -1.21251595    -0.69242454    -1.00557399
Si     8.62955289     3.68134951    14.00034878     0.24105318     0.88247323    -0.61507273
Si     3.86800027     8.32327259    18.87953620     0.90946680    -1.82368207     1.36437988
Si     3.74056516     8.44939453    14.04084522    -1.13530362     0.51120049     0.43096414
Si     3.62361963     1.46642630    11.57136830     2.19967246    -0.70465165    -1.04997873
Si     1.23458506     3.59013944    11.40643096     0.44118315     0.83956528    -2.71954060
Si     7.18380564     7.18747562     7.65910574     0.57769966    -0.70765162    -0.18189596
Si     7.46691595     7.21223044     2.52441252    -0.56516343    -0.22122732    -2.28000927
Si     9.91601693     7.49110851     5.20195519    -0.83297062    -1.02172232     1.68178773
Si    -0.19180070     7.39210145    10.27632206     0.91448236     1.87860131    -1.35572147
Si     0.15166115     2.37441535     5.15522141    -2.45779610    -0.13044861    -1.45015466
Si    -0.04579788     2.39597834     0.14395808    -0.48146439    -0.14339715    -2.86583805
Si     6.01624366     5.87326003     9.06160477    -0.83190626     1.55199170    -2.25516415
Si     6.09649996     6.27297701     3.85411444     0.22739503     0.82625157     2.62751079
Si     6.34117401     1.13776948     8.79733310    -0.88269097    -1.74501801    -0.91252875
Si     6.30366830     1.18767229     3.86659339     2.32275820    -0.50848293     1.38368487
Si     1.09553497     6.01875058     9.20327360    -0.45865655     0.93840730    -1.19684017
Si     1.15191276     6.15696260     3.99517909     0.56345314    -0.79850221    -1.18875563
Si     1.11242585     1.23011835     9.12812031    -1.58602095     0.36170834     0.82847816
Si     1.34585231     1.13212296     3.82072058    -0.08550745     0.69169521    -0.01417533
Si     4.92234391     2.13721764     5.18640785     0.77363873    -0.23470536     2.02781844
Si     4.89828361     4.62726937     7.72765605     0.69165528    -0.55075479    -0.54361635
Si     4.76482909     9.62706975     7.89857246     0.31156921     1.36760592     1.06348944
Si     4.92690793    -0.02165243     2.85925902    -0.32360744    -0.01585607    -2.09385514
Si     0.15629720     4.84364006     7.61388136     1.04128265    -2.00618815     2.21548247
Si     0.23908811     4.83564342     2.48456225    -0.36030158    -0.05828002     1.38716149
Si    10.01692849     9.69612192     7.70746062    -1.09102619     0.84705806     0.38720557
Si     9.83264915     9.72082598     2.65169777     0.44955534    -0.76988089    -1.31759858
Si     6.08964022     8.76918800     6.53137102     2.31772065    -0.20639718    -1.59131002
Si     6.20206170     8.66453775     1.37426816    -0.64768815    -1.07683170     0.04743247
Si     6.22657636     3.55189929     6.40105155    -1.16818404    -0.02853690    -1.98942780
Si     6.12644778     3.57787784     1.47634936     0.86729288     1.78046012     1.46486878
Si     1.31283356     8.37471473     6.62411575     0.91286874     0.81600708    -1.68565869
Si     1.45146078     8.57912584     1.32772617    -0.29593971     1.29754817    -0.42985469
Si     1.38372894     3.44874909     6.48035129     0.05323685     0.67036837     0.65322119
Si     4.94139327     4.90865009     2.77203749     0.09099104    -1.60427642    -0.54518878
Si     4.89999990     7.26599849    10.18859438     0.90513659     1.06066549    -0.53436100
Si     4.88891762     2.43002834    20.76024122    -0.98927456    -0.35839146    -1.61332750
Si     4.87599054     7.30514500     5.47078231     1.70487595    -1.29300141     0.34380609
Si     7.45754251     2.51034489     7.73954389     0.13182642     0.21097037    -0.96412814
Si     7.38320715     4.91732521     5.12428025    -1.40795684     1.43137860     0.69644129
Si     7.52231684     2.46296858     2.65224277    -0.38316083     0.25102440     0.32511300
Si     2.46147354     7.15578359     7.80219713    -0.52651477    -1.06307983     3.13346744
Si     2.52821275     7.29710746     2.69561275     0.02030937    -0.93542528    -0.18943198
Si     2.44091784     2.22826745     7.85127806     0.56916487     0.91626847     0.54306519
Si     2.52318256     2.53334903     2.67952688    -0.25703257     0.96145463    -1.73310971
Si     8.77804335     6.00128991     6.45358941    -2.23390913     2.61777973    -1.40606093
Si     8.86751897     6.10122652     1.21734029     0.67519021     1.20535541    -0.46706796
Si     8.67632966     1.23079303     6.57192252     1.13134062     0.55153352    -0.67894936
Si     8.63712254     1.24656056     1.34786919    -1.70916820    -2.94782305    -0.06288146
Si     3.66382632     5.95164236     6.63036860     0.22435074    -1.15515149    -1.89069712
Si     3.71499004     5.94778468     1.38956687    -2.27704620    -0.43058866    -0.18917580
Si     3.60406316     1.06525735     6.55714389     0.24338278    -0.39630479    -1.80907536
Si     3.69074379     1.09134251     1.40394293    -2.17026949    -1.97524989    -0.07830700
Si     7.29285598     4.95789722     0.29688970    -0.79637420     0.39801627    -1.50920391
Si     3.86788713     3.57027839     4.07494222    -1.53322852     1.36667848    -0.03275953
Si     7.70754603    -0.08146531     5.18889332    -2.15331578     0.33218622    -0.01659605
Si     7.31089526     9.80958589    -0.10487543     1.46398067    -0.17155062    -0.24403884
Si     2.38723263     4.84299308     5.20616391     1.17088008     0.17890516    -0.70345354
Si     2.55536779     4.84867121    -0.18267101    -0.01866770     2.37403965    -0.68728292
Si     2.40205157     9.59697860     5.16612853    -0.03860605    -0.28905395     1.03446054
Si     2.56213906    -0.13588740    -0.38853138     0.69474500     0.32817534     2.46223497
Si     8.54601301     8.56151876     8.80604466    -0.59945673    -0.87003434    -0.65937114
Si     8.66261804     8.34688524     3.81022584    -0.36765152     0.55137807    -0.91682422
Si     8.59566927     3.70314175     8.98092378     1.33548903     2.71848297    -3.52766633
Si     8.64446003     3.80109829     3.85982284     2.89682555    -0.68501657     0.23464814
Si     3.52489649     8.48961840     9.12929645    -0.75879574    -1.44026470    -0.00606696
Si     3.80206611     8.40227486     4.05700254    -1.00924325    -0.40287197    -0.38073155
Si     3.65494426     3.54434533     9.07020883     1.01564634    -2.16947174    -1.13629186
Si     7.34057529     7.36200239    12.54326551    -0.13310453     2.38724184     1.55339456
Si     7.25389384     7.15759489    17.75102504     0.34290549    -0.58090937    -0.35734367
128
Lattice="12.112 0.000 0.000 0.000 11.911 0.000 0.000 0.000 25.202" Properties=species:S:1:pos:R:3:forces:R:3 energy=-620.96917725 virial="-314.60903931 0.56033742 2.48349023 0.56033742 -296.57983398 -0.33654404 2.48349023 -0.33654404 -366.29693604"
Si     1.71045361     4.45295695     1.41795446    -0.47721034     0.12040626     0.38780063
Si     6.07932159     8.93830373    25.37627099    -0.08002394    -0.29354733    -0.49932608
Si     6.09892009     2.90165775    18.84878158    -0.21685247     0.34698021    -0.18519381
Si     6.26687917     2.89768573    12.56634934    -0.67963850     0.20930359     0.10850883
Si    11.87758388     9.10091734    18.82954590     0.39308101    -0.42877752    -0.19664550
Si     0.04241863     9.27859700    25.15531596     0.10884842    -0.97030640    -0.04561046
Si    -0.15752651     3.13037261    18.98983291     0.29498869    -0.32000166    -0.69064558
Si    -0.19714557     3.05953640    12.61533804     0.71586215    -0.10951404    -0.13712010
Si     7.44950839     7.40290809    23.68364290     0.28453940     0.05986818    -0.04208735
Si     7.73321325     7.50330138    17.12846805    -0.56382138     0.06055175     0.27736112
Si     7.43865936     1.67256018    23.66965928     0.43848339    -0.54992712    -0.00912077
Si     7.43516074     1.56426749    17.08037032     0.27966446    -0.34465069     0.54808211
Si     1.40316569     7.57848126    23.62772712     0.50134623    -0.08803758    -0.52498698
Si     1.22535260     7.43734745    17.32580967     0.86981648     0.18791328    -0.24836552
Si     1.68990043     4.48987227    20.31790719    -0.62859094    -0.05083994     0.48487890
Si     1.44095541     1.47682210    23.62998827     0.26753861    -0.12628719    -0.48827118
Si     5.96893927     5.93654843    21.88610624     0.36053711    -0.16713843     0.45381215
Si     6.13891949     6.09332638    15.62184690    -0.14242914    -0.39146960     0.08976366
Si     6.04331366    11.98521190    21.93635274    -0.05299136    -0.52860355     0.10746167
Si     5.89247081     0.05681755    15.63442916     0.35951811     0.06461861     0.03150305
Si     0.06267986     5.91721397    22.01495222    -0.23339087     0.40910250     0.09264953
Si     0.00661056     5.94847960    15.58007984    -0.27097291     0.21827719     0.33508742
Si    12.08105121    11.98763142    21.87840312    -0.33158141    -0.15177195     0.06738557
Si    12.27641238    11.94617002    15.63864115    -0.89350176     0.13030156     0.21379355
Si     7.45746759    10.34540401    20.46796211     0.31031257     0.11838797    -0.57825768
Si     7.42868801    10.51245436    14.05177165     0.44297975    -0.18339115     0.00697047
Si     7.63437918     4.42672996    20.48314258    -0.25509000     0.12717170    -0.23242146
Si     7.54564608     4.50021244    14.11577164     0.58631235     0.03664538    -0.08310440
Si     1.44296446    10.58934299    20.24319563    -0.21542566    -0.22394705     0.21672712
Si     1.26258727     1.75316877    17.24355780     0.93413544    -0.57240033    -0.08452512
Si     1.64384552    10.35427642    14.11023440    -0.55615640     0.60349977     0.51681006
Si     6.13218172     8.89392824    18.73149281    -0.38266796     0.24603310     0.29257008
Si     9.04597942     5.92281088    18.78846117     0.41475379     0.17494470     0.01463943
Si     9.18766833     3.04565311    22.19510352    -0.84514368    -0.00072207    -0.33102652
Si     9.10122103     3.02365253    15.64899965    -0.20378605    -0.12313432     0.15319932
Si     2.84490103     9.01077340    21.91641033     0.69302475    -0.19363764    -0.09844105
Si     2.91169589     8.83330110    15.88635772     0.25200948     0.46078122    -0.68146360
Si     3.03178251     2.87909712    21.99737608     0.07763650     0.20759232    -0.18941012
Si     2.90034422     3.16113263    15.72312291     0.43785396    -0.09059657    -0.27058437
Si    10.58978571     7.33170649    20.38357671    -0.29372761     0.35840416     0.02686648
Si    10.59813246     7.48093240    14.15784677    -0.32760105     0.33401611    -0.30065387
Si    10.40773885     1.43616513    20.41266806     0.53114831     0.61454439     0.13683462
Si    10.62077934     1.40453165    14.20465838    -0.14301702     0.43650413    -0.48268464
Si     4.51369665     7.52082393    20.32852643    -0.07997842    -0.24723518    -0.11228118
Si     4.50510349     7.56952385    14.19333307     0.16928230    -0.48379678     0.04534069
Si     4.45780446     1.41725069    20.31753701     0.24383637     0.24591613     0.08744961
Si     4.63365727     4.29845746    23.51691338    -0.53988379     0.53680581     0.08011628
Si     4.69609246     4.48461363    17.16877204    -0.58125752     0.42362767     0.29380053
Si     9.08565240     5.98638410    12.61230377    -0.03005585     0.05447900    -0.28240666
Si     8.85013004     0.00458950    18.70054754     0.37306806     0.12631917     0.21506156
Si     9.12716141    11.84031395    12.52026127    -0.29746026     0.04298268    -0.06908324
Si     3.08501541     6.05814213    18.69332829    -0.18712297    -0.33843526     0.37132227
Si     3.07189282     6.04721259    12.64532334    -0.28943151    -0.34554121    -0.04167054
Si     2.94505723    12.02973899    18.57886375    -0.08999828    -0.13038981     0.81614292
Si     3.04000695     0.19974988    12.76549288    -0.23663324    -0.67840463    -0.21756202
Si    10.47137019    10.49006358    23.34519412     0.27644008     0.00035361     0.53154981
Si    10.49223960    10.60776898    17.12136894     0.16550589    -0.36062729     0.26729056
Si    10.55966475     4.60833491    23.78234921     0.18669170    -0.48762056    -0.26697090