128
Lattice="11.640 0.000 0.000 0.000 11.654 0.000 0.000 0.000 23.168" Properties=species:S:1:pos:R:3:forces:R:3 energy=-666.22070312 virial="-213.55645752 3.77801824 0.42792404 3.77801824 -214.80877686 -2.15169191 0.42792404 -2.15169191 -207.91641235"
Si     1.38224871     4.37244722     1.22884257     0.11216770    -0.15333790     0.73873544
Si     5.89331264     8.69627557    11.68970154    -0.31472829     0.07140031    -0.31414512
Si     5.90265389     2.91930668    17.31984398     0.20537971     0.16188829     0.36169434
Si     5.68687527     2.88096235    11.76085336     0.48648936    -0.13907139    -0.61932158
Si     0.02346570     8.74565275    17.31305464    -0.18979523     0.05928243     0.28058311
Si    -0.01431347     8.78530058    11.53893902    -0.08977440    -0.22558430    -0.22314975
Si     0.03525919     2.97064496    17.35558507    -0.03388050    -0.12828864     0.07141837
Si     0.11677880     2.79082650    11.52147489    -0.38055447     0.37465185     0.14686839
Si     7.18486347     7.24564486    21.68080317     0.70478940     0.26549816     0.10233394
Si     7.20449249     7.17217109    15.91067259     0.05176578     0.43306223     0.05939155
Si     7.23431707     1.51279709    21.59960453    -0.43426049     0.07271893     0.38293800
Si     7.44730190     1.43852328    15.98710213    -0.36520573     0.18663590     0.00270486
Si     1.51577542     7.21770429    21.87233790    -0.22002932     0.31670368    -0.55598468
Si     1.33674911     7.17825381    15.94040933     0.45704275     0.50538814    -0.36810148
Si     1.56945154     4.29823780    18.78368161    -0.34482348     0.32083911     0.16414382
Si     1.41208614     1.49586008    21.64412959     0.15605478    -0.37506464     0.51061445
Si     5.77725787     5.84281988    20.21423167     0.11297192    -0.02051368     0.16020006
Si     5.77095008     5.73687429    14.46011496     0.29768014     0.23230495    -0.02946821
Si     5.83074014    11.54477115    20.21407066    -0.00191063     0.50202793    -0.12095828
Si     5.92168830    11.59964503    14.65063266    -0.24952787     0.12905584    -0.52844787
Si     0.17329091     5.85661350    20.25998907    -0.37189436    -0.18806347     0.18581030
Si     0.02287406     5.79284335    14.36556700    -0.22206397     0.09911329     0.30217755
Si    -0.03185584    11.68775143    20.31364995     0.09493987    -0.18444234    -0.26221019
Si    -0.06847486    11.70126021    14.46768017     0.29104143    -0.27606481     0.08090687
Si     7.25244051    10.13219995    18.71918779     0.17602929    -0.00839270     0.44078168
Si     7.34366026    10.26550497    13.07755273    -0.25480920    -0.56958771     0.26933700
Si     7.34543390     4.46959849    18.85719877    -0.29036328    -0.29477888    -0.43337598
Si     7.31511510     4.32059918    13.02244318    -0.24859762     0.21724859     0.31853265
Si     1.47872167    10.19133992    18.80313614    -0.47211313     0.19167930     0.21569583
Si     1.45356536     1.53199765    15.85443833    -0.13742338    -0.24418560     0.43835455
Si     1.34679369    10.07874075    13.09319680     0.19063920     0.73861265    -0.04405361
Si     5.67663088     8.63983662    17.33789873     0.37695605     0.29940084     0.05768945
Si     8.77367531     5.85878161    17.34888580     0.07684710     0.08598984     0.24096601
Si     8.70865431     3.01936022    20.30203109     0.37193674     0.01594084    -0.04328269
Si     8.77226921     2.96977850    14.48773386     0.13542973    -0.30299658     0.01854566
Si     2.79676845     8.73717505    20.37282496     0.60155833    -0.00751997    -0.28733402
Si     2.84447267     8.75196681    14.51848367    -0.05410744    -0.42959815     0.07505700
Si     2.97513550     2.81509088    20.21373295     0.08417663     0.52820706     0.09928957
Si     2.99578826     2.94242873    14.55266499    -0.15271215    -0.44499919    -0.49058044
Si    10.28721201     7.35107603    18.86713380    -0.12874039    -0.28402227    -0.33193594
Si    10.17737419     7.40661501    13.02481499     0.11598372    -0.46761054     0.12383243
Si    10.23374545     1.57462789    18.93123826    -0.08547323    -0.22398385    -0.35405469
Si    10.22144765     1.49346087    13.02509476    -0.02441273    -0.13336577    -0.06347647
Si     4.26365227     7.29024552    18.84108165    -0.11828579    -0.03293491     0.01241180
Si     4.30996757     7.25513463    13.09319217     0.21855795     0.17817506    -0.00091188
Si     4.47872722     1.48753032    18.74823066    -0.40011930    -0.47542620     0.13756762
Si     4.44618476     4.35025821    21.68670544    -0.60603803    -0.01315721    -0.16824409
Si     4.41268194     4.37752420    15.95339533    -0.25020611    -0.03271803     0.03961004
Si     8.84314946     5.82686129    11.67134493    -0.54196286    -0.12551577    -0.44097590
Si     8.85866186    11.67920248    17.50599404    -0.37196738    -0.06945034    -0.47130704
Si     8.81358500    11.60322337    11.66251615    -0.40539384     0.31400865    -0.41710779
Si     2.81662411     5.85619351    17.34684054     0.58610547    -0.35506284     0.15737872
Si     2.87271810     5.86870907    11.64933257     0.05832367    -0.43848675    -0.36979514
Si     2.82894995    11.72614206    17.36777150     0.45308793    -0.11804182    -0.02927071
Si     2.83820657    11.60472772    11.76342356     0.29509714    -0.36885729    -0.71531218
Si    10.09263194    10.24312201    21.72966721     0.19991520     0.02440079    -0.02239114
Si    10.15071037    10.20517346    15.90781908     0.24004203     0.12782779     0.36484373
Si    10.26291282     4.47451988    21.73814090    -0.24185672    -0.54577649    -0.27681291
Si    10.23983382     4.43044549    15.90751679    -0.12484665    -0.11543791    -0.04089111
Si     4.34908940    10.20066754    21.72561918     0.04406246    -0.21825889     0.06149852
Si     4.25715760    10.20654491    15.96560320     0.27496195    -0.10153149     0.01914635
Si     4.40401925     1.27480437    13.09834970    -0.18033606     0.68149614     0.65719640
Si     1.48494509     4.23793844    13.02216680     0.12672704     0.51893932    -0.02617815
Si     8.86175409     8.65611578     8.61965796    -0.53175014     0.19834185     0.22292480
Si     8.65337580     8.75061183     2.80172879     0.46676853     0.02731031    -0.18617937
Si    -0.02886234     8.71882927     5.65284001     0.24095850     0.28179637     0.18944119
Si    -0.05684359     8.73173579     0.01915528     0.33407792     0.06365002     0.06041075
Si    -0.06861991     2.97438429     5.75401615     0.11457773    -0.14709771    -0.04528509
Si    -0.14894584     2.80942807    -0.01142493     0.60811442     0.52190149    -0.20227318
Si     7.32854970     7.23250189    10.15621333     0.35857061     0.07227892     0.06631692
Si     7.32685023     7.26328900     4.25900543    -0.38651347     0.01768284     0.29534721
Si     7.08463797     1.32662627    10.32964550     0.54866189     0.37909287    -0.00607833
Si     7.32648869     1.43907300     4.46907471    -0.29656261     0.14270359    -0.29287034
Si     1.42778548     7.21924783    10.10125564    -0.08666570     0.39215344     0.26323515
Si     1.53408570     7.35046608     4.29292459    -0.20061265    -0.45569217     0.27224958
Si     1.60080796     1.41798309    10.09616634    -0.48769894    -0.01736582     0.19959906
Si     1.55620503     1.54694893     4.33855686    -0.51326632    -0.20989653     0.08765221
Si     5.73900988     3.00613350     5.64128423     0.33338487    -0.38753635     0.62723237
Si     5.94878200     5.77941751     8.66970059    -0.50872636     0.11510331     0.10821946
Si     5.74009375    11.63628288     8.82803507     0.14293694    -0.30379239    -0.38135287
Si     5.81515361    11.74506920     3.05835949     0.28345340    -0.23357207    -0.72902042
Si    -0.09722579     5.80990423     8.72671595     0.23665661    -0.22611286    -0.33747604
Si     0.07184754     5.83875658     2.84640580    -0.22391587     0.01059449    -0.08468622
Si    -0.06348966    11.78943458     8.61615658     0.30930403    -0.20752648     0.06388161
Si     0.10629983    11.63324077     2.92003269    -0.16283362     0.07694538    -0.26845294
Si     7.30513565    10.13304104     7.31938824    -0.06837248     0.14466897     0.07254706
Si     7.25168724    10.30947520     1.35681043    -0.23563606    -0.23173662     0.54402113
Si     7.25208799     4.25880354     7.18342090    -0.11314763     0.29761088     0.18804383
Si     7.24725096     4.32890783     1.35174374     0.14848143     0.12590422     0.45127204
Si     1.38856782    10.28520198     7.22078729     0.17356201    -0.19145070    -0.13654777
Si     1.53349757    10.16233725     1.43376105    -0.46258241     0.26781574    -0.02874773
Si     1.34071562     4.36380288     7.24907394     0.48072207     0.11400270     0.23956250
Si     5.84217254     5.82446110     2.83944719     0.12653401     0.02954864     0.04666326
Si     5.87403157     8.72020483     0.04600458    -0.34405333     0.26258153    -0.45194933
Si     5.68152936     2.95324145     0.04328566     0.79925072    -0.50115919    -0.41921946
Si     5.88885985     8.76693123     5.79641522     0.07717174    -0.23934355    -0.01239499
Si     8.50167317     2.79164042     8.87230615     0.55402339     0.34723541    -0.66648734
Si     8.67759678     5.70621648     5.70293439     0.37398070     0.52897269     0.20691597
Si     8.67448134     2.87102587     2.91617986     0.22853318     0.05313500    -0.11092813
Si     2.86131692     8.76172816     8.68378852     0.16903442    -0.18754238    -0.00655518
Si     2.92839690     8.80499202     2.90163759     0.61214715    -0.13471200     0.08522925
Si     2.99785212     2.96916924     8.72764039    -0.45240745    -0.05623216    -0.19268593
Si     2.80659676     2.99565279     2.73202403     0.38252208    -0.20157364     0.39224851
Si    10.24781009     7.24899731     7.12158344    -0.41229981    -0.22727346     0.11851127
Si    10.20132538     7.25476840     1.44446727    -0.21126534     0.18346037    -0.03374374
Si    10.04643282     1.58577084     7.21820801     0.23890084    -0.50922650     0.39959657
Si    10.16262038     1.38528168     1.54674484    -0.20551506     0.19233134    -0.51645017
Si     4.46679189     7.29913302     7.23916059    -0.33481932    -0.10246412     0.20471507
Si     4.46468391     7.29387318     1.47469705    -0.45269659     0.04975134    -0.09460430
Si     4.43411513     1.58216302     7.29432447    -0.19219483    -0.35793492    -0.12031817
Si     4.33522907     1.41761812     1.48609122    -0.14707553     0.40101629    -0.04268271
Si     8.79596370     5.81939268    -0.04043690    -0.48780566     0.13442524     0.07197066
Si     4.28489321     4.46217218     4.20876334     0.03212097    -0.22454566     0.30418086
Si     8.75073275    11.56406147     5.92343249    -0.05049529     0.32091010    -0.74689060
Si     8.57446497    11.78551648    -0.10015577     0.78547376    -0.47719139     0.41893089
Si     2.91525238     5.81295411     5.89177884    -0.04308392     0.32408062    -0.65395117
Si     3.03206716     5.75611948    -0.00362560    -0.23011538     0.30743676    -0.07379304
Si     2.98872257    11.74482563     5.89413258    -0.14095253    -0.02005568    -0.29347453
Si     2.90443817    11.66158292    -0.00729248     0.01215840     0.00971755    -0.11248703
Si    10.19800102    10.25410827     9.99938055     0.11565982    -0.18629014     0.55786985
Si    10.18440828    10.15830211     4.14247902    -0.07269347     0.10192840     1.03937912
Si    10.13283254     4.27012442    10.16479980     0.16360143     0.14103328     0.15253814
Si    10.16191754     4.38641771     4.25941037     0.10905503    -0.14991483     0.03228796
Si     4.31417964    10.10574193    10.24307420    -0.01263381     0.26510143     0.04797120
Si     4.47455833    10.28356623     4.44626058    -0.59628356    -0.23857537    -0.09247229
Si     4.36811457     4.38634965    10.17438804     0.12991750     0.14231664     0.21663493
Si     8.66675216     8.76045618    14.54706670     0.17121266    -0.12678988    -0.25164640
Si     8.77739276     8.74305841    20.23811647    -0.48539990    -0.03230458     0.09492835
128
Lattice="10.370 0.000 0.000 0.000 10.258 0.000 0.000 0.000 21.416" Properties=species:S:1:pos:R:3:forces:R:3 energy=-664.10290527 virial="251.86273193 -31.31514359 6.87944841 -31.31514359 254.67254639 8.84986496 6.87944841 8.84986496 229.11788940"
Si     1.22612640     3.79939577     1.37232055     0.95983863     0.46844700    -1.00091004
Si     5.21092802     7.51196893    10.72811111     0.59166473     0.67827570    -0.21897891
Si     5.41109507     2.60665146    16.17521985    -2.08481026    -0.68707883    -0.53714043
Si     5.13694386     2.46121082    10.87931071    -0.52636439    -0.17961033     1.43260241
Si     0.00667862     7.72133521    16.16603000     0.46046764    -0.66854334    -0.63314104
Si    -0.13993100     7.71160889    10.64450502     1.29881477    -0.94832456     1.72108841
Si     0.02293404     2.67192040    16.09253814     0.17646757     0.06065159     0.02996131
Si    -0.00349707     2.62664158    10.69361690     1.58181190    -0.98094225     0.54827988
Si     6.52249912     6.46712076    20.06272811     0.15164286    -0.10758913    -0.68439853
Si     6.46631518     6.51425326    14.82629742     0.25657421    -1.09631693    -0.69190139
Si     6.44182562     1.30700387    19.89003407     1.25353718    -0.44882032     0.07198961
Si     6.59882495     1.37503897    14.80400279    -0.16207534    -0.38390046    -1.08645391
Si     1.27048105     6.58523574    19.99330587     0.13467841    -1.04460335     0.58343208
Si     1.23622356     6.35425768    14.70456325     0.18180874    -0.39839861     1.24203289
Si     1.30037421     3.91550181    17.48901412     0.50158000    -0.28345311    -0.98144931
Si     1.36487370     1.23312129    20.09563682     0.29726419    -0.33726332    -0.92541707
Si     5.16917519     5.22000200    18.66349511     0.03252022    -0.33213100     0.36681062
Si     5.19719260     5.17102973    13.42809773    -0.31845039    -0.28999418     0.79551744
Si     5.15031575    10.23025909    18.53909609     1.05219793     0.38373315     0.69454628
Si     5.32205590    10.15992566    13.62336912     0.35801134     0.28950125    -0.27116388
Si     0.02676763     5.11620282    18.81033087     0.87095261     1.01073933    -0.07928518
Si    -0.01413329     5.11345313    13.30421431     1.06910193    -0.30669421     0.55227125
Si    -0.11459339    10.27663913    18.75803613     0.42558420     1.11487484     0.29655021
Si     0.06526733    10.20478134    13.55444392    -1.34848452     0.70289338    -1.30901432
Si     6.47981596     8.90382997    17.34497332    -0.21231098     1.04631877    -0.05306841
Si     6.33896591     8.65776971    12.27983987     1.16887403     1.27211368    -0.67037678
Si     6.57575692     4.04163855    17.27144531     0.02002779     0.41339976     1.52931786
Si     6.43962458     3.78091756    12.19131427     0.36091840    -0.88262832     0.36806595
Si     1.20420231     9.06365011    17.48693781     0.53834510     0.24616405    -0.96986556
Si     1.20087304     1.16934057    14.90798329     0.84009326     1.42335939    -0.11591993
Si     1.18216132     9.06005897    12.09679306     0.25165355    -1.99975765    -0.66571766
Si     5.16375889     7.70916058    16.11885037    -1.07726014    -0.95192713     0.35923183
Si     7.93360827     5.28940894    16.06860890    -1.33530378    -0.85202444    -1.79765964
Si     7.86269806     2.75737014    18.64184686    -2.27183914    -1.75619650    -0.87188160
Si     8.00676791     2.46984700    13.41117553    -0.62600011     0.72881919    -0.19820881
Si     2.54778111     7.84051372    18.71723044     0.08572269    -0.30729282    -0.05754022
Si     2.49482918     7.59693881    13.37205645     0.52087235     1.22535944    -0.12130366
Si     2.62024692     2.49943243    18.59808897    -0.30830145    -0.75578088     0.26241270
Si     2.43604836     2.47258425    13.42253847    -0.36625221     0.54934895     0.64941621
Si     9.17239327     6.30550887    17.42914319     0.41417900     1.90857911     1.30215621
Si     9.05514364     6.28388305    12.05898958    -0.77227026     0.88029826    -1.52386653
Si     9.09045459     1.37655981    17.37137932    -0.19307122    -0.45240575     0.11245845
Si     9.22355180     1.22388431    11.95706809    -0.66920316    -1.19172096     0.70806843
Si     3.71497483     6.46762455    17.44039142     0.62610590    -0.73865694    -1.09259105
Si     3.90655376     6.42138406    12.05226841    -1.38391757    -1.38404655     0.27323470
Si     3.87250082     1.16498157    17.24012007     1.06516337     2.47702026     0.57245719
Si     3.78072044     3.83226943    19.92649213     1.18179297     0.50973582     1.22354960
Si     3.94001182     3.63945586    14.71546855     0.97777790    -0.14913666    -0.85729361
Si     7.68865022     4.90368997    10.75142909     1.40369308     0.05738943     0.65508723
Si     7.71537786    10.28900792    16.13377793     0.82666326     0.06146514     0.31700909
Si     7.67548156    10.13937455    10.77860909     0.03405054    -0.10643569     0.69936299
Si     2.70753445     4.91512138    15.95934090    -1.32009912     1.87665629     0.93772435
Si     2.53298340     5.03789408    10.59500494     0.27500731     1.94863415     0.54435372
Si     2.62807160    10.19024437    16.05883361    -1.39486849    -1.16968036    -0.39925236
Si     2.69524929     9.99680880    10.78863775    -1.31762302     3.51549006     1.38710725
Si     9.09272065     8.95403650    20.07185239    -1.00323248     0.43776357    -0.01896856
Si     9.13220211     9.07297263    14.89862997    -0.87023449    -1.02112257    -0.50683844
Si     9.11716317     3.81859211    19.93953444    -0.47898155     1.35207164     2.89839697
Si     9.14512833     3.95964796    14.73362713    -0.41800284    -0.71196514     0.02141648
Si     3.94686713     9.02793095    19.91924213    -0.89891982     0.79315662    -0.36244163
Si     3.90989880     8.91346356    14.77958935    -1.04585576    -0.59167290    -0.89045274
Si     3.90283216     1.15568292    12.44813993     0.04116448    -0.47500110    -2.39802313
Si     1.33355143     3.90634555    11.99629248    -0.39042678    -1.20258307     0.79708099
Si     7.81266295     7.61930904     8.07286372     0.63866794    -0.47138897     0.07794844
Si     7.92864978     7.77132180     2.55093674    -1.68612790     0.96996027     1.59083152
Si     0.11003015     7.71988792     5.26946412    -0.20234838    -0.80989003     0.45945340
Si     0.01152327     7.77870684    -0.04347301     0.36775240    -0.19138123     1.10369968
Si    -0.11647811     2.61803752     5.40055083     0.16101564     0.06095840     0.73955214
Si     0.12180131     2.66311849    -0.18622048    -0.67638528    -0.60530090     0.77832186
Si     6.62074668     6.31799421     9.52041727    -0.55688906     0.57590884    -1.47691643
Si     6.44848170     6.42558474     3.91518783     0.71854758     0.89784598    -0.18045069
Si     6.35859308     1.27588724     9.52126350     0.53604424    -1.08364320    -1.29632545
Si     6.41235528     1.36410762     3.93115815    -0.66065902     0.99512929    -0.31931725
Si     1.20249727     6.41150656     9.32675163    -0.26520926    -0.51875162    -0.54452610
Si     1.33480453     6.28986305     3.88502008    -1.31508780     3.04982781    -1.53281045
Si     1.26642771     1.21633942     9.40262248     1.03886950    -0.07615370     0.33124009
Si     1.13665357     1.32963625     3.98871231     0.03772577     0.87358534    -0.02746601
Si     5.18603179     2.56157743     5.44101823    -1.05420423     0.11677499    -0.35008994
Si     5.09846565     5.21883150     8.19086710     1.80996108    -0.74254286    -0.31307834
Si     5.05328809    10.02289989     8.17573861     0.83097017     0.92786360     0.39900666
Si     5.03765554    10.43407857     2.65441586     0.12362668    -1.36921644     0.09027065
Si    -0.11653901     4.89653036     7.94352096     0.06337371     1.20244098     0.77783608
Si     0.00945288     5.24196800     2.46680134    -0.84365791     0.22904217     0.34244120
Si     0.11705353    10.28151752     7.85915081    -0.40699464    -0.73926830     1.45702398
Si    -0.06233104    10.38747521     2.58077813    -0.78424948    -0.72855753     0.36759853
Si     6.53383492     8.95583589     6.86035602    -0.07273784     0.56908053    -1.25867653
Si     6.31519196     8.98343869     1.30853026     0.63207144     0.33029747     0.35587692
Si     6.45969682     3.91975286     6.72175137    -0.17493109     0.77644789    -0.20989506
Si     6.56189238     3.76357921     1.43542028    -1.52741265    -0.19815186    -1.81386232
Si     1.45304149     9.04020778     6.57359852    -0.53781855    -0.49263516    -0.01183474
Si     1.27642751     9.04332348     1.39925284     1.40169263    -0.48891670    -0.30731770
Si     1.45390278     3.97335636     6.67149876    -0.34636241    -0.53566182    -1.19404519
Si     5.28173409     5.09510517     2.57666323    -1.52645826     0.45203483     0.56008655
Si     5.11597923     7.80424986    -0.23442285     0.96797907    -1.46349514     2.15253830
Si     5.26124003     2.50280425    -0.06996224    -0.53690660     1.49223518    -0.13761675
Si     5.28158776     7.59263161     5.49896781    -0.60691309     0.48049048    -0.16053201
Si     7.62923891     2.56195643     8.04374570    -0.49696162    -0.39045078     0.84172976
Si     7.76464034     5.07425001     5.12938656     0.27659667    -0.43156230     0.63388085
Si     7.80774913     2.49554285     2.58808653     0.53921402    -1.00036871     0.96786851
Si     2.58204838     7.68806755     7.98459382    -1.09176993     0.67529708     1.15484500
Si     2.89211553     7.75967153     2.76443901    -1.69978976     0.12447697    -0.20086551
Si     2.59394730     2.67472331     8.10711416     0.66805196    -0.56176615     0.65268046
Si     2.52855228     2.56852285     2.69338308    -0.06725121    -0.00608114     0.28316653
Si     9.04866173     6.31264176     6.58816691     0.29524934     0.53327447    -0.11049926
Si     8.97239869     6.47773448     1.16869482     1.23719287    -0.43762755    -0.16393358
Si     8.91037120     1.19218480     6.89171327     0.08755653     0.50953150    -2.24063110
Si     9.07062670     1.38855318     1.13474270     1.09655762     0.25817227     0.29715610
Si     3.82818422     6.36527019     6.86125235     0.59418344    -0.03807281    -2.14757824
Si     3.94996781     6.43306620     1.26370284     0.26346049     0.05054398    -0.35956347
Si     3.88257548     1.15897162     6.87454230    -0.05591470     1.30818903    -0.55884862
Si     3.82450069     1.44900715     1.27224383     0.10535162    -0.31751955     0.02938689
Si     7.64896525     5.08170158     0.07266808     1.01539087    -0.10940219    -1.83823252
Si     3.77837355     3.94901129     3.95848899     1.61480165    -0.87907696     0.04182971
Si     7.59338880    10.39359466     5.21284362     1.00489974    -1.28364444     2.50359464
Si     7.81818037    10.23942885     0.03406330    -1.61284661    -0.24160069    -1.16765833
Si     2.63432862     5.36118593     5.18875844     1.18499959    -1.68558133     3.04958820
Si     2.50204619     5.19871452    -0.04771307     0.29751280    -0.45911664     0.02840940
Si     2.52462737    10.52146195     5.29593817     0.63878554    -0.46591467     0.70197827
Si     2.78412440    10.23285321    -0.04656116    -1.42358279    -0.08648552     0.73410594
Si     9.08948158     9.00046085     9.37894758    -0.61478299     1.28264451    -1.54818511
Si     9.07292407     9.07962131     4.17609146     0.08450109    -0.08615194    -1.73537958
Si     9.01768688     3.64672798     9.41195697    -0.76873934     1.31907868    -1.18448853
Si     9.17250239     3.80097118     3.72687491    -0.08330646     0.60852528     1.32203913
Si     3.82630088     8.75945001     9.54603824     0.95055377    -1.10433269    -1.79080689
Si     3.92855679     9.11949072     4.29063909     0.77356040    -0.50674927    -0.87540579
Si     4.06137550     3.88319714     9.58661484    -0.76315904    -1.24039769    -1.20873475
Si     7.93187682     7.59091902    13.50909319     0.12061185     0.71036899     0.19360362
Si     7.82283977     7.81000701    18.60587279     0.78966379    -1.77172971     1.28351712
128
Lattice="11.469 0.000 0.000 0.000 11.373 0.000 0.000 0.000 23.306" Properties=species:S:1:pos:R:3:forces:R:3 energy=-672.19616699 virial="-177.64021301 2.82346845 0.82998079 2.82346845 -168.15124512 -1.37166297 0.82998079 -1.37166297 -196.25517273"
Si     1.50939888     4.34282126     1.42902124    -0.45034128    -0.02417601    -0.03675896
Si     5.76831732     8.32711460    11.72985496    -0.08328509     0.28151438     0.08003139
Si     5.78031284     2.85449067    17.49338071     0.11434405     0.16737889    -0.14941368
Si     5.72350610     2.66977905    11.91370803     0.00709690     0.26357111    -0.59240764
Si     0.07003849     8.47707672    17.55106209    -0.17575870     0.32776570    -0.04532795
Si    -0.05496536     8.44171827    11.68822439    -0.18010452     0.12797470    -0.41855091
Si     0.00720341     2.94050129    17.55815299    -0.01937448    -0.36065102    -0.17403248
Si     0.04004364     2.77497631    11.67694157    -0.31198168    -0.02683808    -0.03928341
Si     7.19610211     7.13651171    21.76546675    -0.10679612     0.07708164     0.25207135
Si     7.18167229     7.15963420    16.05379571    -0.02686058    -0.20570007     0.05268941
Si     7.27258162     1.40992413    21.74197389    -0.72528833     0.41261756     0.00479452
Si     7.23102538     1.46489337    16.01868081    -0.03822607    -0.34004122     0.21363503
Si     1.43317255     7.24608089    21.80629923     0.07441276    -0.12784636     0.13622850
Si     1.49702406     7.05006079    16.11257764    -0.24748281     0.20128292    -0.50199008
Si     1.47556604     4.31665968    18.93988609    -0.17911491    -0.07980205     0.26765990
Si     1.53972363     1.37007094    21.77650244    -0.29576445     0.42385983     0.31017399
Si     5.70447281     5.78048872    20.39624726     0.05538410    -0.21616620    -0.23030174
Si     5.74796705     5.66763140    14.68636256    -0.08240969    -0.32440567    -0.39181483
Si     5.82217185    11.49819054    20.25131563    -0.40152341    -0.33468384     0.32030416
Si     5.81067812    11.25867117    14.69598084    -0.27805489     0.00781398    -0.22817588
Si     0.03279172     5.74919550    20.47348282    -0.16394202    -0.16748178    -0.26909196
Si     0.05535024     5.68427648    14.59286575    -0.16914263    -0.14156224    -0.11913922
Si    -0.06001931    11.51658351    20.43544811     0.14378637    -0.61646247    -0.38002437
Si    -0.02137571    11.31689146    14.65076949     0.18442303    -0.20620015     0.01943672
Si     7.18802281     9.97387611    18.93000565     0.01650437    -0.15146077    -0.07933583
Si     7.21521773     9.75711915    13.28103975    -0.26318032     0.19201085    -0.27682367
Si     7.19606803     4.46549004    18.92149426    -0.16334680    -0.69561589    -0.24318299
Si     7.15994792     4.09435348    13.36301147     0.03939074     0.39529312    -0.78890264
Si     1.35944094    10.03849239    18.93315075     0.09961407    -0.26721704     0.11096602
Si     1.39745173     1.40473222    16.19329758    -0.18312344    -0.28454092    -0.49451131
Si     1.39595438     9.84915158    13.10981845     0.01879914     0.44005334     0.19248165
Si     5.68125388     8.48235053    17.55625095     0.37556794     0.17654979    -0.43465105
Si     8.66370824     5.78597035    17.38124704    -0.00176535    -0.21742254     0.66082656
Si     8.54289121     2.87073325    20.26088388     0.45735270     0.39481533     0.47838071
Si     8.76417166     2.77679927    14.56921961    -0.35793248    -0.18131858     0.31037605
Si     2.83730118     8.63113265    20.27263236     0.14669031    -0.16922082     0.33246797
Si     2.82442076     8.48806765    14.53175187     0.15364546    -0.44656494     0.19238074
Si     2.87394289     2.80937256    20.32708250     0.24019524     0.35964233     0.06486729
Si     2.70639995     2.72480229    14.65336052     0.86617208     0.24571544    -0.20929495
Si    10.10921934     7.16761653    19.01036194    -0.07527454    -0.44858196    -0.38782179
Si     9.98019542     6.97233847    13.04996780     0.42993951     0.14131826     0.55912006
Si    10.00915411     1.47692103    18.89217353     0.06589694     0.12646148     0.19829056
Si    10.05270871     1.23183481    13.10785123     0.00537169     0.56039780     0.10408352
Si     4.25614573     7.05904929    18.87596697    -0.01548682     0.30070585     0.34361607
Si     4.21934222     6.95743352    13.13436463     0.37480795     0.42367882     0.04965656
Si     4.29096494     1.46767720    18.83343015     0.16565578    -0.33464059     0.15337506
Si     4.28870432     4.32256311    21.81672445    -0.11183274    -0.00790872    -0.36799902
Si     4.35944362     4.09492505    15.96513335    -0.46586740     0.57447803     0.43305400
Si     8.55807367     5.44577289    11.73448396     0.06350809     0.39310080    -0.16122417
Si     8.58695276    11.41067579    17.48956183     0.16870323    -0.22900030    -0.03031603
Si     8.46015124    11.22349334    11.78992615     0.66276890     0.21444334    -0.48658693
Si     2.90548661     5.61551382    17.44313858     0.16715062    -0.13542238     0.02101556
Si     2.81826213     5.70890644    11.58552981     0.01195645    -0.68144369     0.26950487
Si     2.85756148    11.22886727    17.46776203     0.12206031     0.70960748    -0.01737049
Si     2.90766830    11.39894963    11.75934643    -0.14585394    -1.00747204    -0.21866640
Si    10.02580410     9.97853284    21.83437951     0.15882409     0.12262877     0.15104631
Si    10.05025592     9.90152363    16.15608417     0.24509692     0.13298209    -0.29661664
Si     9.96394506     4.29640030    21.88704877     0.56433737    -0.17850234    -0.69065320