ITEM: TIMESTEP
210
ITEM: NUMBER OF ATOMS
64
ITEM: BOX BOUNDS xy xz yz pp pp pp
-2.1577784230499999e-01 1.1187578062354000e+01 -2.1577784230499999e-01
-5.8671844649000000e-02 1.1223192087773000e+01 5.3801181254999997e-02
0.0000000000000000e+00 1.0992593606461000e+01 -5.8671844649000000e-02
ITEM: ATOMS id type x y z fx fy fz
1 1 1.22359 4.00012 1.23471 1.03422 0.0549304 -0.318904
2 1 1.2116 9.61469 6.79274 0.914582 0.112825 -0.455061
3 1 6.74462 4.00564 1.18879 0.660237 0.366525 0.290165
4 1 6.87863 3.99276 6.69287 0.750444 0.845742 0.455971
5 1 6.72737 9.63203 1.28239 0.833402 -0.279575 -0.939502
6 1 6.8604 9.61365 6.70372 -0.244913 -0.15309 -0.271393
7 1 10.9749 11.0291 2.56102 -0.480901 -0.533596 -0.578558
8 1 10.9014 11.1248 8.01146 0.169497 -0.61152 0.435637
9 1 11.0184 5.35462 2.57026 0.147187 1.17509 0.23922
10 1 11.1546 5.45449 8.20694 -1.71675 -1.04963 -0.653802
11 1 5.36266 10.9662 2.58581 -0.107135 1.26338 0.137895
12 1 5.40597 11.0062 8.05301 -0.185734 -0.570278 0.637473
13 1 5.44497 5.46181 2.63773 -0.827758 -1.15122 -0.621855
14 1 1.21924 3.96239 6.80212 0.624877 -0.325779 -0.275137
15 1 1.26508 9.60358 1.28463 -0.1916 -0.188474 -0.0190454
16 1 5.53654 5.24638 8.18369 -0.157399 0.591213 -0.156387
17 1 1.28923 6.71013 4.01974 -0.219437 0.102685 -0.354218
18 1 1.31582 6.75525 9.54704 0.493374 0.909 0.369559
19 1 6.90927 1.2131 4.07111 -1.09864 1.24318 -1.17244
20 1 6.99237 1.21376 9.39875 0.0210755 -0.685044 -0.0120935
21 1 6.85483 6.8408 3.83134 0.669519 0.166196 1.50853
22 1 6.87019 6.81015 9.44429 1.09076 -0.29997 -0.220281
23 1 11.1396 2.6342 10.7872 -0.623805 -0.653527 -0.0611285
24 1 11.1113 2.56436 5.25765 -0.441627 0.753329 -0.142641
25 1 10.9959 8.17246 10.951 0.741126 -0.4614 -0.358957
26 1 11.1389 8.20721 5.30894 -1.11807 -0.255746 0.730066
27 1 5.55557 2.43129 10.7827 -0.0522204 1.12623 0.212009
28 1 5.45555 2.76151 5.41799 -0.171071 -2.38999 -0.556192
29 1 1.42294 1.06085 3.90232 0.625574 0.941364 0.993787
30 1 1.3809 1.23452 9.49808 -0.508132 -0.376906 -0.513908
31 1 5.51066 8.08917 10.8582 -0.868625 0.810369 0.132524
32 1 5.4824 8.11427 5.32792 -0.119083 0.425782 0.121771
33 1 4.00891 3.91163 3.96587 0.0721719 0.959733 -0.205596
34 1 3.99117 9.60414 9.58854 0.896484 -0.25501 -0.948486
35 1 9.6353 4.24674 4.00869 0.128802 -2.5865 -0.123857
36 1 9.62217 3.94528 9.49754 0.856379 1.09875 0.138225
37 1 9.68157 9.61285 3.95728 -0.73779 0.693273 0.641092
38 1 9.71417 9.52629 9.49424 -0.787193 0.89635 -0.509889
39 1 2.49217 11.0098 10.7835 1.04962 -0.401744 0.670838
40 1 2.74229 10.92 5.34829 -1.18244 0.147525 -0.254142
41 1 2.76912 5.34086 10.8123 -0.883655 -0.437587 0.469794
42 1 2.5611 5.29225 5.38567 0.751103 -0.054457 -0.231148
43 1 8.07264 10.8791 10.6871 0.927285 0.248987 0.542519
44 1 8.0974 11.1141 5.25546 1.40944 -1.2319 0.72334
45 1 8.33414 5.40903 10.9262 -0.970406 -0.198892 -0.571461
46 1 4.07832 3.88013 9.50152 0.672091 0.168875 -0.0523977
47 1 4.1169 9.53141 3.92121 -0.688207 -0.296733 0.8321
48 1 8.28845 5.49497 5.35839 -0.939371 0.387474 0.371535
49 1 4.00573 6.76034 1.1949 0.416947 0.459137 0.68106
50 1 3.95876 6.74726 6.63457 0.476656 0.391612 0.495081
51 1 9.87803 0.98896 0.898693 0.059401 -0.309512 0.215304
52 1 9.66651 1.32828 6.67481 0.374798 -0.986902 -0.338761
53 1 9.58403 6.85766 1.37557 0.488075 -0.468981 -1.03791
54 1 9.67941 6.80686 6.80824 1.00492 -0.163882 -1.14823
55 1 2.7022 2.54184 2.46506 0.0548412 0.152797 0.835854
56 1 2.71852 2.55908 8.13415 0.0308465 0.0641804 -0.769102
57 1 2.61094 8.12402 2.68582 0.559473 0.374252 -0.881403
58 1 2.70331 8.19394 8.13798 -0.488977 -0.0948959 -0.118517
59 1 8.13666 2.78015 2.68043 -0.438262 0.550135 0.944196
60 1 8.32165 2.64253 8.05601 -0.374408 0.0633916 -0.0555033
61 1 4.16182 1.18764 1.17296 -0.305601 -0.76169 0.251393
62 1 4.1464 1.12532 6.8032 0.283106 1.01075 -0.666807
63 1 8.27406 8.32381 2.57766 -0.776253 -0.209336 0.379272
64 1 8.38333 8.2456 8.0034 -1.58288 -0.111276 1.1385
