ITEM: TIMESTEP
240
ITEM: NUMBER OF ATOMS
64
ITEM: BOX BOUNDS xy xz yz pp pp pp
-2.1577784230499999e-01 1.1187578062354000e+01 -2.1577784230499999e-01
-5.8671844649000000e-02 1.1223192087773000e+01 5.3801181254999997e-02
0.0000000000000000e+00 1.0992593606461000e+01 -5.8671844649000000e-02
ITEM: ATOMS id type x y z fx fy fz
1 1 1.21644 3.94364 1.19387 1.84507 1.26939 0.195331
2 1 1.19127 9.63686 6.64255 0.258983 -0.0314443 -0.333593
3 1 6.75511 4.17773 1.34961 0.501155 -0.63407 -0.597482
4 1 6.92558 4.03894 6.86574 0.381352 -0.804136 -0.525264
5 1 6.76059 9.68544 1.29054 0.34827 0.380161 -0.0497174
6 1 6.77009 9.53227 6.80718 -0.055146 -0.325252 -0.936941
7 1 0.0282515 10.8491 2.76116 -1.45482 0.859088 -1.12876
8 1 -0.156008 10.815 8.03567 -0.958408 1.96368 0.403199
9 1 11.023 5.43829 2.49482 -0.697757 -0.000582483 0.135302
10 1 11.0223 5.33467 8.00662 0.155164 -0.383648 1.01031
11 1 5.25139 11.1048 2.62662 0.765809 -0.37903 0.245643
12 1 5.47923 10.9554 8.12537 -0.315625 0.436401 -0.30404
13 1 5.37461 5.4566 2.62591 0.0150384 0.0999799 0.859446
14 1 1.2546 3.95385 6.6427 0.990972 0.155805 0.713953
15 1 1.21736 9.61685 1.18554 0.975839 0.202869 -1.13127
16 1 5.73816 5.28754 8.42376 -0.509046 0.035508 -0.398118
17 1 1.2651 6.90543 3.81658 -0.165457 0.229997 0.191361
18 1 1.33712 6.61191 9.40584 -0.270669 1.16317 -0.693524
19 1 6.83956 1.2931 4.01895 -0.150929 -1.10095 0.72877
20 1 7.17628 1.03659 9.50153 -1.03022 1.37379 -0.00495367
21 1 6.81694 6.74473 4.04322 -0.187594 0.262893 0.183718
22 1 6.95179 6.80428 9.70591 -0.477884 0.60745 -1.45536
23 1 0.0102508 2.48054 10.9264 -0.148222 -0.481265 -1.05628
24 1 -0.0150467 2.55651 5.32242 -0.51989 -1.02652 0.273951
25 1 0.00554248 8.16878 10.6281 -1.04278 -0.304858 1.12852
26 1 10.9233 8.32053 5.30912 0.151097 -1.40963 -0.412324
27 1 5.70112 2.55764 10.8472 -0.184929 -0.734076 0.45877
28 1 5.50177 2.60821 5.44997 0.128646 -0.221142 0.761428
29 1 1.42911 1.29232 3.95323 0.310282 -0.174042 -0.432588
30 1 1.41548 1.13134 9.43711 -0.188898 -0.0992102 -0.09545
31 1 5.48647 8.2869 10.8474 0.0149708 -0.604052 -0.332269
32 1 5.30785 8.18476 5.35243 0.591494 0.173008 0.0269128
33 1 4.13426 4.02811 4.17699 -0.512056 0.157119 -1.66708
34 1 4.09095 9.47078 9.23022 -0.467811 0.31332 1.5551
35 1 9.79221 3.87343 3.97756 -0.621037 1.55786 -0.337684
36 1 9.73551 3.95434 9.60281 -0.25553 0.110464 -0.583174
37 1 9.46974 9.59275 3.98308 0.394483 0.601538 0.225566
38 1 9.53223 9.461 9.32202 0.825322 0.199344 0.647384
39 1 2.74059 10.9874 10.6916 -0.605937 -0.555944 0.547248
40 1 2.52019 11.1121 5.27653 0.475229 -0.272676 0.979573
41 1 2.76237 5.38715 10.7748 -0.119545 -1.26299 0.557713
42 1 2.53136 5.4043 5.15692 -0.541323 -0.0560191 0.390345
43 1 8.34947 10.9642 10.8193 -0.440629 -1.30526 0.646917
44 1 8.05556 10.9944 5.36448 0.00465155 0.247894 -0.350208
45 1 8.1922 5.40125 10.8764 1.48282 -0.749536 0.623435
46 1 4.21954 3.87294 9.54954 -0.365371 0.274404 -0.375635
47 1 3.92866 9.63551 4.10469 1.03553 0.741363 -0.958221
48 1 8.35198 5.19154 5.26019 -0.378203 0.674752 0.102292
49 1 4.18547 6.74825 1.10145 -1.17811 1.45419 0.657974
50 1 3.49053 7.06732 6.3548 1.49631 -0.492574 0.155695
51 1 10.0049 0.921907 1.20265 0.1008 -0.128657 0.219768
52 1 9.68244 1.11418 6.72316 0.93469 0.0974642 -0.0497644
53 1 9.53636 6.93384 1.12788 0.681887 -0.435998 0.524542
54 1 9.69244 6.73259 6.6941 -0.390926 0.232475 -0.465518
55 1 2.85517 2.70559 2.51676 -0.791002 -0.335044 0.833974
56 1 2.7737 2.56371 8.08313 -0.32911 0.537708 0.00555121
57 1 2.7762 8.43521 2.48997 -0.836576 -1.9982 -0.00925188
58 1 2.4717 8.23863 7.97864 0.158775 -0.17165 0.797236
59 1 7.9015 3.04682 3.04453 0.875224 -0.103302 -0.575071
60 1 8.41385 2.60278 8.12077 -0.16352 -0.544918 0.149846
61 1 4.16244 1.2159 1.20261 0.263822 0.235344 -0.433832
62 1 4.13953 1.114 6.83389 0.479489 0.234689 -0.636584
63 1 8.12367 8.19775 2.68217 -0.0512714 0.107098 -0.869684
64 1 8.20239 8.03312 8.02487 -0.236944 0.136459 0.262886
