ITEM: TIMESTEP
310
ITEM: NUMBER OF ATOMS
64
ITEM: BOX BOUNDS xy xz yz pp pp pp
-2.1577784230499999e-01 1.1187578062354000e+01 -2.1577784230499999e-01
-5.8671844649000000e-02 1.1223192087773000e+01 5.3801181254999997e-02
0.0000000000000000e+00 1.0992593606461000e+01 -5.8671844649000000e-02
ITEM: ATOMS id type x y z fx fy fz
1 1 1.1261 3.88934 1.28738 1.29695 0.250156 -1.24409
2 1 1.40719 9.71629 6.87522 -0.76994 -0.0645383 -1.12656
3 1 6.67673 3.97027 1.25894 0.693434 0.529291 -0.376441
4 1 6.89669 4.07139 6.60718 -0.018436 -0.696511 -0.291911
5 1 6.72063 9.60888 1.24996 1.10052 0.706322 0.0937474
6 1 6.92683 9.58083 6.71562 -1.24713 0.701089 0.286914
7 1 10.8244 11.1065 2.70916 0.394317 -0.450188 -0.504507
8 1 -0.136856 10.967 8.01007 -0.678358 0.404553 0.1529
9 1 10.7197 5.16065 2.44553 0.114812 -0.527052 0.35562
10 1 -0.0502855 5.49798 8.09081 0.338461 -0.110033 0.200012
11 1 5.26519 10.9959 2.51607 0.352152 -0.786671 0.87198
12 1 5.29477 10.9587 7.99731 1.01966 0.786801 0.0134869
13 1 5.34337 5.36921 2.58462 0.931738 0.255857 1.18333
14 1 1.28797 4.05692 6.70434 0.652576 -0.0670747 0.577722
15 1 1.07916 9.62907 1.42442 0.892402 -0.299776 -0.387332
16 1 5.7915 5.16321 8.39259 -0.727985 -0.612965 -0.24251
17 1 1.55491 6.83768 4.34473 0.017788 0.843304 -0.0782535
18 1 1.33729 6.82256 9.61224 0.144548 -0.342118 -1.29483
19 1 6.80586 1.23659 3.75446 0.161975 0.463263 -0.0973627
20 1 7.07853 1.19865 9.29107 -1.0302 -0.10175 0.525495
21 1 6.88077 6.78753 3.98735 -0.55957 0.138003 -1.09457
22 1 7.33024 6.47356 9.33897 -1.22452 0.767126 0.0407788
23 1 11.0975 2.50069 10.6127 0.332716 0.245803 0.632236
24 1 11.0639 2.7109 5.33851 0.17557 -0.744991 0.361557
25 1 -0.092252 8.111 10.8565 -0.793771 0.872016 0.073803
26 1 0.0677876 8.34917 5.49089 -0.917345 -0.317182 -0.491251
27 1 5.52017 2.52817 10.7864 0.600278 -1.47077 0.279591
28 1 5.47333 2.40952 5.23221 0.921429 1.87199 0.564027
29 1 1.31922 1.38077 3.97987 0.0439718 -0.427348 -0.679307
30 1 1.405 1.06794 9.4261 0.39467 0.825821 -0.315916
31 1 5.07693 8.53164 0.200891 0.0603068 -1.19708 -0.830545
32 1 5.58007 8.22635 5.38349 -0.98245 -0.0475584 -0.261436
33 1 4.10442 3.9455 4.10702 0.262212 0.626847 -0.950137
34 1 4.01185 9.62087 9.50495 0.452608 0.192738 0.0271585
35 1 9.55799 3.92661 4.08706 0.0836793 0.870597 -1.13618
36 1 9.62919 4.06552 9.34982 0.348831 -0.716038 0.425651
37 1 9.55402 9.5792 4.07902 0.492342 -0.264819 -0.736203
38 1 9.59461 9.53566 9.29699 0.548889 -0.265297 1.5991
39 1 2.66055 10.979 10.8338 -1.43682 -0.338608 0.160455
40 1 2.45881 11.1428 5.2402 0.631548 -0.643325 0.781854
41 1 2.68343 5.41539 10.9168 -0.196652 -1.80414 -0.278078
42 1 2.85383 5.38329 5.46056 -0.44732 0.0231221 0.610804
43 1 8.14201 10.8752 10.667 -0.510134 -0.294443 -0.046159
44 1 8.2585 11.021 5.4375 -0.0762591 -1.17062 -0.411393
45 1 8.19215 5.24471 10.8551 0.960167 -0.558357 0.427363
46 1 4.14823 3.83718 9.54525 -1.08896 1.22429 -0.752949
47 1 3.96854 9.58487 4.15651 0.963112 0.82889 -1.02449
48 1 8.38283 5.53532 5.26827 -0.583333 -0.372717 0.826881
49 1 4.01692 6.7367 1.28643 -0.393003 1.18279 0.321115
50 1 3.87897 7.10679 6.65312 0.635134 -0.707649 -0.85871
51 1 10.022 0.756856 0.767127 -0.0651337 0.797054 0.613271
52 1 9.75105 1.17342 6.69642 1.28124 0.49405 0.0577065
53 1 9.61799 6.66612 1.14313 -0.841552 0.945915 -0.0565688
54 1 9.71282 6.9263 6.71189 -0.142903 0.0494168 0.267214
55 1 2.82627 2.72433 2.59568 -1.49158 -0.922323 -0.242556
56 1 2.76797 2.49242 7.94419 -0.517269 1.3325 1.50882
57 1 2.70565 8.17299 2.77824 -0.677494 -0.195758 -0.814671
58 1 2.67758 8.27036 8.18558 -0.574653 -0.224862 0.599846
59 1 8.11562 2.85531 2.6723 -0.385636 -0.766486 0.093861
60 1 8.39225 2.66685 7.82725 -0.683653 -0.433936 1.35047
61 1 4.09939 1.11263 1.24991 0.115576 1.73835 -0.132994
62 1 4.09007 1.23721 6.588 0.596993 -1.43431 0.720004
63 1 8.22194 8.15787 2.47376 -0.0737927 0.205296 0.898683
64 1 8.13403 8.20879 8.11456 1.12325 -0.795963 -0.745535
