ITEM: TIMESTEP
390
ITEM: NUMBER OF ATOMS
64
ITEM: BOX BOUNDS xy xz yz pp pp pp
-2.1577784230499999e-01 1.1187578062354000e+01 -2.1577784230499999e-01
-5.8671844649000000e-02 1.1223192087773000e+01 5.3801181254999997e-02
0.0000000000000000e+00 1.0992593606461000e+01 -5.8671844649000000e-02
ITEM: ATOMS id type x y z fx fy fz
1 1 1.29294 4.1077 1.17889 1.3021 -0.698918 -0.12601
2 1 1.1787 9.69789 6.76297 0.237535 0.0238991 0.272477
3 1 6.63146 4.18198 1.31713 1.41419 -0.38868 -0.490932
4 1 6.96892 3.80016 6.74783 -0.228298 0.0457947 0.252626
5 1 6.8953 9.68836 1.43553 -0.5876 -0.0185781 -0.593783
6 1 6.76689 9.55229 6.71209 -1.0456 -0.515543 0.491083
7 1 -0.241376 10.8383 2.74144 0.141081 0.546376 -0.887572
8 1 10.9823 10.8223 8.34985 -0.256442 1.42823 -1.31606
9 1 10.8984 5.21646 2.41106 -0.69765 -0.0843153 0.428467
10 1 -0.133346 5.18983 8.05843 0.114384 0.943642 -0.255215
11 1 5.73405 -0.0106561 2.60042 -0.63712 0.120785 -0.193331
12 1 5.45247 11.0964 8.02636 -0.246558 -0.538788 0.225067
13 1 5.35404 5.6757 2.58994 -0.243519 -0.839116 0.243688
14 1 1.24795 3.9989 6.54268 -0.376 -1.63185 1.77934
15 1 1.16735 9.63826 1.26435 0.523221 -0.20932 -0.233717
16 1 5.66327 5.21032 7.99912 -0.467106 -0.0915118 0.385111
17 1 1.70591 7.09895 4.36915 1.43885 0.307116 1.08283
18 1 1.23589 6.64298 9.37807 0.437448 0.923535 -0.422158
19 1 6.74767 1.52465 3.9921 -0.77699 -0.0948062 0.239496
20 1 7.08526 1.14306 9.55967 -0.779382 -0.407899 -0.114272
21 1 6.8512 6.91762 4.01523 -0.486449 -1.03475 -0.114043
22 1 7.18186 6.35295 9.18762 0.284148 0.535949 0.649503
23 1 11.335 2.48193 10.8599 -1.00582 -0.21655 0.106009
24 1 10.9435 2.42917 5.38294 -0.0315963 0.860891 -0.433024
25 1 -0.0776726 8.08903 10.8079 0.00254598 -0.0307123 0.178905
26 1 -0.0635811 8.2213 5.42351 -0.00239494 -0.526851 0.12416
27 1 5.58481 2.66355 10.6846 0.2316 -0.72455 1.57087
28 1 5.29446 2.58081 5.48546 1.21687 0.827921 -0.700464
29 1 1.22703 1.25128 3.88776 1.03854 -0.00101761 0.377399
30 1 1.52471 1.12727 9.5469 -0.0623567 -0.255127 -0.645144
31 1 5.30156 8.58188 0.0520518 -0.592128 -0.185674 -0.656769
32 1 5.30293 8.33761 5.15383 0.421865 0.249367 0.578742
33 1 4.10091 4.09083 4.10845 0.268094 0.294832 -1.4949
34 1 4.00556 9.65215 9.28081 0.618716 -0.515379 1.07625
35 1 9.67157 4.15428 4.10851 0.860395 -1.25714 -0.423417
36 1 9.77606 3.67107 9.44803 -0.0502204 0.636465 0.525896
37 1 9.59601 9.30612 4.03028 0.26029 0.816058 -0.397948
38 1 9.52577 9.47465 9.54038 0.111773 -0.566707 0.303792
39 1 2.7102 10.9548 10.8331 -0.241375 0.0164417 0.262433
40 1 2.52843 11.1276 5.29425 -0.727635 0.115027 -0.00182404
41 1 2.71544 5.47516 10.777 0.361461 -0.776596 -0.289274
42 1 2.51453 5.30834 5.22996 0.16005 -0.0486287 -0.397659
43 1 8.22327 10.8979 10.9319 0.26836 0.328613 -0.299764
44 1 8.34928 10.5962 5.5099 0.441037 0.309741 0.0598525
45 1 8.38714 5.13698 10.8667 0.00840713 0.460511 -0.0513357
46 1 4.22026 4.0075 9.43359 -0.993077 0.518792 -0.599018
47 1 4.01669 9.93218 3.90577 0.927366 0.13351 0.187461
48 1 8.22293 5.29837 5.32853 -0.592539 1.14354 -0.0463734
49 1 3.94266 6.96436 1.13698 0.453441 0.783756 0.833504
50 1 3.42178 7.02964 5.91607 -1.01551 0.904421 0.252054
51 1 9.97797 0.983875 1.17309 -0.00755168 -0.131902 -0.11053
52 1 9.6824 0.933309 6.8409 1.70888 -0.290961 -0.195481
53 1 9.6954 6.73323 1.2283 -0.947824 0.0851732 -0.761364
54 1 9.66165 6.79581 6.6746 -0.050712 -0.754068 0.755418
55 1 2.76272 2.73437 2.57575 -0.343132 -0.635441 -0.00484868
56 1 2.78801 2.52369 8.05439 -0.400082 1.02461 0.286576
57 1 2.74816 8.46976 2.71423 -0.674608 -1.16574 -1.36653
58 1 2.62367 8.17006 7.955 -0.262188 -0.342529 0.33519
59 1 8.06904 3.0319 3.0028 -0.385098 0.685226 -1.24166
60 1 8.38287 2.34106 8.07462 -0.283894 0.71039 0.180199
61 1 4.2635 1.26953 1.19279 -0.633422 0.415922 -0.082788
62 1 4.07205 1.137 6.72309 0.465434 -0.134989 0.582923
63 1 8.229 8.09297 2.55822 0.284974 -0.0147198 0.130882
64 1 8.19466 8.20588 8.02604 0.12882 -1.06717 0.189021
