ITEM: TIMESTEP
40
ITEM: NUMBER OF ATOMS
64
ITEM: BOX BOUNDS xy xz yz pp pp pp
-2.1577784230499999e-01 1.1187578062354000e+01 -2.1577784230499999e-01
-5.8671844649000000e-02 1.1223192087773000e+01 5.3801181254999997e-02
0.0000000000000000e+00 1.0992593606461000e+01 -5.8671844649000000e-02
ITEM: ATOMS id type x y z fx fy fz
1 1 1.38061 4.04266 1.21162 0.111109 0.0665637 -0.276178
2 1 1.11886 9.59101 6.69488 0.751352 0.137173 -0.056796
3 1 6.91393 4.0317 1.2136 0.0101195 -0.593082 0.733712
4 1 6.98729 3.98711 6.77415 -0.585292 -0.102331 -0.0570878
5 1 6.71398 9.63974 1.28704 0.198453 -0.00795731 0.0233396
6 1 6.72513 9.52193 6.68556 0.461325 0.0695572 0.519563
7 1 10.9967 10.9338 2.63808 -0.866702 1.03846 -0.428737
8 1 10.8758 10.9815 8.10919 0.335001 0.258014 -0.397938
9 1 11.0922 5.44226 2.55676 -0.960133 -0.65737 -0.35953
10 1 11.0092 5.27225 8.11424 0.647741 0.813304 -0.386161
11 1 5.37794 11.0933 2.63969 -0.324227 -0.236558 -0.171676
12 1 5.44584 10.9656 8.10638 -0.462495 0.173015 -0.247003
13 1 5.48463 5.45737 2.55324 -0.162399 -0.0904513 0.383335
14 1 1.3591 3.93699 6.70238 -0.219498 0.190384 0.0949536
15 1 1.21804 9.64893 1.2151 -0.126344 -0.0152708 -0.310172
16 1 5.41122 5.36108 8.01411 1.01109 0.322821 0.386753
17 1 1.24587 6.80992 3.88274 0.385843 0.513446 0.635142
18 1 1.27331 6.82745 9.42421 0.134273 -0.643359 -0.0244506
19 1 6.90813 1.20065 4.12126 0.363133 -0.204162 -0.58535
20 1 7.02204 1.08816 9.47395 -0.0928269 0.188236 0.438478
21 1 6.84318 6.83932 4.04774 -0.300874 -0.605446 -0.620138
22 1 6.87434 6.75012 9.45018 -0.703703 0.178388 0.168759
23 1 11.1841 2.5592 10.8695 -0.609346 -0.0793887 -0.0340549
24 1 11.0966 2.53824 5.30241 0.194065 0.0719333 0.184961
25 1 11.0394 8.1718 10.8573 -0.47405 0.210988 -0.421618
26 1 10.9554 8.14875 5.28133 0.178596 0.441165 0.0236732
27 1 5.62108 2.57328 10.7914 -0.0471721 -0.155173 0.201792
28 1 5.53348 2.59923 5.45693 -0.00466388 0.802991 -0.827518
29 1 1.44531 1.18813 3.92649 -0.198771 -0.245121 0.628301
30 1 1.40426 1.19607 9.40572 -0.408596 -0.494102 0.766948
31 1 5.44544 8.23718 10.8606 -0.0308239 -0.416119 -0.670597
32 1 5.35948 8.15792 5.31922 0.198224 0.30555 -0.0568058
33 1 4.10606 4.04981 3.98687 0.277806 -0.439096 -0.0314564
34 1 4.02014 9.63176 9.43233 -0.252232 -0.326277 0.424009
35 1 9.70596 3.97708 3.96839 -0.0299656 0.297493 -0.0962422
36 1 9.67403 3.9572 9.5336 0.20182 -0.484556 -0.0255898
37 1 9.54169 9.64069 3.99545 0.0914698 -0.587769 -0.152224
38 1 9.54992 9.56825 9.44909 0.192016 -0.525733 0.412314
39 1 2.5854 11.0374 10.846 0.321876 -0.243385 -0.514323
40 1 2.62797 11.0121 5.38218 -0.0940841 0.112809 -0.0607755
41 1 2.80186 5.4278 10.733 -0.557386 -0.139088 0.617855
42 1 2.63755 5.46105 5.29619 0.067014 -0.635631 0.0712436
43 1 8.1521 10.8642 10.8785 0.332458 0.81087 -0.104269
44 1 8.12943 10.929 5.393 -0.289407 0.343832 -0.322802
45 1 8.2751 5.3875 10.8574 0.177034 0.00344885 -0.254034
46 1 4.18192 3.94468 9.42846 -0.173311 0.313454 0.499239
47 1 4.03609 9.58399 3.93888 -0.513861 0.654908 0.442657
48 1 8.24492 5.39924 5.34276 0.454431 -0.353398 -0.236281
49 1 4.02974 6.90413 1.22815 0.0416501 -0.45531 -0.188266
50 1 4.02822 6.79504 6.67987 -0.24628 -0.0987906 0.231942
51 1 9.68522 1.17186 1.25439 0.799413 -0.38448 0.0411229
52 1 9.66876 1.14507 6.68992 0.824475 0.0501714 0.30914
53 1 9.57137 6.85396 1.22818 0.216081 -0.0208366 0.336091
54 1 9.6932 6.73616 6.66444 -0.558742 -0.0395797 0.75281
55 1 2.77375 2.57972 2.55919 0.185849 0.657076 0.115913
56 1 2.78528 2.56975 8.14034 -0.258929 0.385167 -0.612366
57 1 2.58509 8.29906 2.56559 0.435551 -0.546614 0.0641946
58 1 2.63826 8.22047 8.01463 -0.280325 0.128329 0.349548
59 1 8.32077 2.51369 2.67816 -0.450462 0.843164 -0.583955
60 1 8.34318 2.49415 8.11561 0.115181 0.645562 0.092909
61 1 4.19008 1.2311 1.18556 0.0673478 0.0178396 0.233859
62 1 4.23569 1.25828 6.84051 -0.491742 -1.25207 -0.56486
63 1 8.10964 8.24345 2.64455 0.727816 -0.0423766 -0.33488
64 1 8.20236 8.13304 8.05342 0.265031 0.0747667 -0.170424
