ITEM: TIMESTEP
630
ITEM: NUMBER OF ATOMS
64
ITEM: BOX BOUNDS xy xz yz pp pp pp
-2.1577784230499999e-01 1.1187578062354000e+01 -2.1577784230499999e-01
-5.8671844649000000e-02 1.1223192087773000e+01 5.3801181254999997e-02
0.0000000000000000e+00 1.0992593606461000e+01 -5.8671844649000000e-02
ITEM: ATOMS id type x y z fx fy fz
1 1 1.42219 3.9304 1.18988 -0.0502898 0.109267 0.703085
2 1 3.30094 8.31282 5.64413 0.910481 -4.19113 4.01997
3 1 6.68001 4.33891 1.14963 0.408852 -0.168419 0.239148
4 1 6.87808 3.81382 6.45436 0.272031 -0.321998 0.485197
5 1 6.73316 9.68763 1.24902 0.182727 -0.372633 -1.10466
6 1 6.76442 9.59522 6.51226 -0.154515 1.01352 0.256689
7 1 -0.172574 10.8888 2.55781 -0.996724 -0.371126 -0.692796
8 1 10.9893 0.0456098 7.76537 -0.250605 -1.69866 0.820057
9 1 -0.0536645 5.24608 2.50185 -0.299118 -0.0209884 -0.615261
10 1 10.967 5.06543 8.37735 -1.70951 -0.099187 -0.580547
11 1 5.82166 0.217582 2.21977 -0.623737 -0.110354 0.737211
12 1 5.44729 11.0056 7.97782 -0.3765 0.018094 0.533675
13 1 5.34301 5.54836 2.75233 -0.368087 -0.125984 -0.606408
14 1 0.888706 3.47224 6.99056 1.33053 0.761016 -1.35865
15 1 1.24547 9.65172 1.24881 -0.439229 0.580932 -1.93605
16 1 5.68558 5.14511 7.92437 -0.553888 0.476815 0.29388
17 1 1.18593 7.66121 4.18218 0.569178 2.95898 3.54823
18 1 0.96922 6.91022 8.80263 2.30795 1.8845 -0.267537
19 1 6.84608 1.36994 3.88083 0.465097 0.526515 -0.504341
20 1 6.92894 1.23252 9.5242 0.0469952 -0.0800355 -0.866515
21 1 6.91089 6.78489 3.9724 -0.546984 0.274158 0.383976
22 1 7.42303 6.45411 8.81482 -1.52364 2.24304 1.25
23 1 0.118719 2.51574 10.8661 0.57142 -0.982266 0.159331
24 1 10.93 2.37932 5.2274 0.107327 0.528393 -0.307364
25 1 0.254417 7.85537 0.0243839 -0.191186 0.25138 0.0186298
26 1 2.25508 8.93321 5.79318 -0.827824 -4.22929 5.08093
27 1 5.50757 2.76276 10.7844 -0.031037 -0.153924 -0.580166
28 1 5.26592 2.36228 5.21849 0.294393 0.415661 -0.0896204
29 1 1.21714 1.13204 3.69161 -0.26358 1.21384 1.10512
30 1 1.4935 1.21914 9.33223 -0.576742 -0.0600797 -0.259081
31 1 5.15693 8.29032 0.0686394 0.513001 0.873423 -0.636531
32 1 5.5346 7.89411 5.53027 -0.458252 1.17672 -1.03853
33 1 4.04017 3.96383 4.00826 -0.549262 -0.114052 0.120988
34 1 4.21637 9.7989 9.61852 0.162752 -0.0590462 0.4008
35 1 9.74445 4.183 4.01068 -0.166343 -1.14388 0.456726
36 1 9.66719 3.69819 9.79102 -0.482782 0.92462 -0.911879
37 1 9.49779 9.51516 3.78898 -0.0416711 0.585839 -0.0663396
38 1 9.4749 9.93254 9.21055 0.270148 0.37388 0.104758
39 1 2.55847 11.009 10.7832 0.507788 -0.161157 -0.212979
40 1 2.28194 10.0816 5.54424 -3.62503 3.35824 1.00256
41 1 2.96426 5.24753 11.0301 0.611562 0.300821 -0.494259
42 1 2.17501 6.63217 5.39069 2.40021 -3.53275 4.30234
43 1 8.21055 11.0575 10.8167 -0.830051 -0.647145 0.0108525
44 1 8.8598 10.5287 5.84386 -0.202216 -1.03528 1.25497
45 1 8.36469 5.48031 10.7676 0.0747048 -0.312062 0.20133
46 1 4.13552 4.05841 9.3372 0.18981 0.119614 -0.0513377
47 1 3.89638 9.23385 4.37232 5.51603 -0.0304773 -2.50744
48 1 8.40254 5.50305 5.42186 -1.01229 -0.443329 -0.298985
49 1 3.90899 6.98268 1.42719 0.680798 -1.8345 -0.958475
50 1 2.89365 7.5908 7.77256 -4.02225 -1.14992 -5.26324
51 1 9.99344 0.955613 1.088 0.240337 0.0871021 -0.277601
52 1 9.69855 1.19478 6.79141 -0.600903 1.02653 -1.22226
53 1 9.66496 6.80025 1.31372 0.595228 -0.191436 -0.92468
54 1 8.83006 6.35809 7.62309 1.98501 1.28554 -1.32568
55 1 2.73888 2.48063 2.61401 0.0785292 1.30251 0.016676
56 1 2.83331 2.55514 7.94578 -0.369139 0.12394 0.307071
57 1 2.54204 8.44315 3.93677 -0.317197 0.123523 -4.0865
58 1 1.07862 7.88617 6.69369 0.114807 1.23923 -0.601894
59 1 8.01722 3.08925 2.6661 -0.178487 -0.103862 0.512834
60 1 8.31632 2.51534 8.09703 -0.732455 0.0306139 0.250191
61 1 4.09027 1.39035 1.06117 0.188674 -0.721627 0.135846
62 1 3.92686 0.848457 6.63713 1.28091 1.37278 0.571317
63 1 8.08665 8.17406 2.45698 0.531144 0.467231 0.694486
64 1 8.09931 8.57331 7.91674 -0.0368972 -3.56165 0.668726
