ITEM: TIMESTEP
90
ITEM: NUMBER OF ATOMS
64
ITEM: BOX BOUNDS xy xz yz pp pp pp
-2.1577784230499999e-01 1.1187578062354000e+01 -2.1577784230499999e-01
-5.8671844649000000e-02 1.1223192087773000e+01 5.3801181254999997e-02
0.0000000000000000e+00 1.0992593606461000e+01 -5.8671844649000000e-02
ITEM: ATOMS id type x y z fx fy fz
1 1 1.17653 3.87943 1.28453 0.493143 1.22093 -0.263017
2 1 1.31116 9.53418 6.74933 0.188669 0.360294 0.1027
3 1 6.76823 3.99644 1.11305 0.973302 0.145378 0.786921
4 1 6.88438 4.03413 6.68738 -0.426473 -0.936788 -0.183905
5 1 6.88697 9.63746 1.15373 -0.191626 -0.396631 0.176313
6 1 6.88032 9.67177 6.69508 -0.404601 0.0908014 0.302549
7 1 10.9607 10.9157 2.62361 -0.615314 1.22708 -0.344769
8 1 11.0871 10.9831 8.08521 -0.657457 0.207238 -0.0125831
9 1 11.0838 5.46495 2.62654 -0.424827 -0.532558 0.0805525
10 1 11.0599 5.41988 7.99745 0.0772865 0.355815 0.817892
11 1 5.34982 10.8664 2.4488 -0.0874013 0.55903 0.750725
12 1 5.33591 11.0088 8.02089 0.532834 0.464061 0.251064
13 1 5.45133 5.34281 2.56798 0.352783 0.380635 0.848247
14 1 1.33701 3.97233 6.78139 0.677625 0.354226 -0.2589
15 1 1.2015 9.52908 1.33647 0.556059 0.442142 -1.20151
16 1 5.44479 5.39367 8.11075 0.992014 -0.518649 0.625538
17 1 1.30409 6.80391 4.06353 -0.165752 -0.0622912 -0.193224
18 1 1.27502 6.63084 9.655 0.253354 0.961866 -1.48943
19 1 6.93703 1.12571 3.76446 0.174818 -0.137706 1.02953
20 1 6.95106 1.27577 9.47706 -0.676659 -0.368145 -0.640192
21 1 6.89376 6.77048 4.04921 -0.761787 0.247026 -1.23973
22 1 6.91122 6.72968 9.56763 -0.790526 0.892955 -0.764826
23 1 11.0686 2.6249 10.74 0.218785 -0.59803 0.140885
24 1 11.042 2.71817 5.43787 0.297869 -1.27097 -0.620521
25 1 11.0321 8.19373 10.8241 -0.109707 0.0672218 0.0201939
26 1 11.0212 8.26513 5.36441 -0.319311 -0.398942 -0.115771
27 1 5.42158 2.61317 10.7898 0.580515 -1.1123 0.405728
28 1 5.51536 2.42418 5.18012 0.4179 1.2488 0.894569
29 1 1.25644 1.28822 3.91875 0.0916993 -0.345405 0.824201
30 1 1.48577 1.12282 9.55683 -0.798434 0.426786 -0.643469
31 1 5.42903 8.20473 10.9315 0.268287 -0.613734 -0.78479
32 1 5.49166 8.25323 5.38902 -0.0128661 -0.55369 -0.207264
33 1 4.11029 3.95927 4.02224 -0.312114 0.11366 -0.684641
34 1 4.04288 9.58454 9.43598 0.192519 -0.217812 0.539238
35 1 9.7111 4.02026 4.01824 -0.668641 0.189137 -0.714761
36 1 9.68987 4.06859 9.37459 -0.0700847 -0.498383 0.211944
37 1 9.56328 9.61382 3.9832 -0.110907 -0.343463 0.129175
38 1 9.62577 9.68919 9.45706 0.1221 -0.409411 0.221897
39 1 2.62597 10.9353 10.8318 -0.169676 -0.487886 0.717237
40 1 2.47459 11.1153 5.26502 0.908233 -0.907111 0.302845
41 1 2.6567 5.24323 10.9758 0.120847 -0.0886999 -0.494361
42 1 2.75168 5.41989 5.37464 -0.0792631 -0.448495 0.351604
43 1 8.18012 11.1397 10.7659 0.0930687 -0.807979 0.246214
44 1 8.22036 11.1208 5.32539 -0.509512 -0.482558 -0.487864
45 1 8.31 5.34123 10.8237 0.0168271 -0.00667246 0.264753
46 1 4.07036 3.96136 9.49615 -0.368224 0.224474 -0.634809
47 1 4.0015 9.47999 3.95977 0.0433107 1.26616 0.267024
48 1 8.25129 5.35856 5.30055 0.31625 0.409919 0.517561
49 1 4.03407 6.68653 1.25327 -0.123272 1.04648 0.150343
50 1 4.1841 6.7714 6.78987 -0.823754 0.58812 -0.644366
51 1 9.68946 1.31279 1.19629 0.272507 -0.564071 -0.0154392
52 1 9.73622 1.20086 6.82045 0.657902 0.0649543 -0.54547
53 1 9.68704 6.80377 1.17064 -0.406662 -0.223494 0.45912
54 1 9.60713 6.82171 6.66211 -0.132232 0.349843 0.718315
55 1 2.65142 2.63664 2.5762 0.623405 -0.464752 0.40386
56 1 2.77271 2.48209 8.06164 -0.511499 1.1673 0.760878
57 1 2.61344 8.14071 2.62357 0.357511 -0.404014 -0.104217
58 1 2.72437 8.06886 8.18803 -0.639543 0.165972 -0.20952
59 1 8.26519 2.66317 2.54636 0.0815407 0.183539 -0.0477079
60 1 8.32024 2.64204 8.04486 -0.475714 0.0522728 0.323463
61 1 4.08323 1.16687 1.25893 0.311287 0.224045 -0.338368
62 1 4.132 1.2751 6.69317 0.490252 -1.51252 -0.631482
63 1 8.24961 8.11573 2.54089 -0.226997 0.788724 0.481708
64 1 8.20138 8.27924 8.16382 0.316332 -0.773733 -0.607884
