64
Lattice="10.87963 0.00000 0.00000 0.10333 10.67731 0.00000 -0.04693 0.54560 11.42487" Properties=species:S:1:pos:R:3:force:R:3 pbc="T T T" energy=-6856.407307 virial="-8.3383 6.5088 -3.1937 6.5088 -19.0675 37.0726 -3.1937 37.0726 32.5538"
Si     1.39248359     4.06574349     1.44365724    -0.26678079     0.13919277    -0.11206754
Si     1.35509122     4.36113234     7.14580795    -0.16701194    -0.16001251    -0.09854829
Si     1.43226126     9.40879636     1.42618605    -0.20382294     0.03459632    -0.03169236
Si     1.43324784     9.68131283     7.16491868    -0.71764936     0.13049782    -0.31939727
Si     6.82718190     4.08193854     1.41800942    -0.37796256    -0.21049052     0.29173670
Si     6.81097066     4.32630138     7.12653785    -0.25108774     0.28289543     0.02915334
Si     6.88148027     9.40741561     1.41076897    -0.45837572    -0.00115117     0.26584733
Si     6.85399361     9.68965376     7.11605771    -0.38361117    -0.04503564     0.11043033
Si     0.09426146    10.80802852     2.86528639     0.36409749     0.13007144    -0.05973337
Si    10.93777598    11.07301438     8.57782667     0.57210962     0.03414222    -0.00194337
Si     0.06088057     5.47251493     2.86829887     0.15965019     0.10011028    -0.19092753
Si     0.02534331     5.75715163     8.57961255     0.10678920    -0.17549554     0.18676997
Si     5.41205313     0.14540836     2.87085760     0.55766234     0.00498205    -0.29153105
Si     5.49681270    11.07436279     8.56849921     0.59844234     0.00290687     0.22781151
Si     5.49078290     5.47548492     2.85494807    -0.02165321    -0.09202262     0.12044567
Si     5.44665400     5.72475684     8.57410598     0.32180155     0.17723643    -0.17348267
Si     1.35481707     1.54491327     4.28634861    -0.21191825    -0.19344487    -0.08439545
Si     1.32635758     1.79428888     9.99463368    -0.30048443     0.32986467    -0.01719581
Si     1.40916327     6.87346745     4.28583533    -0.41604097     0.11012915     0.07274423
Si     1.38455735     7.14349007    10.01226344    -0.39352413     0.17313411    -0.40244180
Si     6.79109876     1.54412149     4.30578527    -0.45762576     0.14767009    -0.49860400
Si     6.77994881     1.83747846     9.99322935    -0.46484415    -0.32396117    -0.03907598
Si     6.82218268     6.88000201     4.29124973     0.11037092     0.00424816    -0.09041851
Si     6.81042700     7.16064187     9.97761900    -0.27332352    -0.26961637     0.06968385
Si     0.02812068     2.69164040     0.00909858     0.43937245    -0.34939820    -0.00999602
Si     0.00963613     2.93629856     5.68431007     0.32152782     0.09689808     0.38327845
Si     0.04997615     8.54188133    11.41165262     0.13738021    -0.00787040     0.28275981
Si    10.92398966     8.28481372     5.72413894     0.64214467     0.05785799    -0.03171342
Si     5.46265922     2.67752093     0.01036551     0.46610171    -0.05885602     0.00153382
Si     5.46155167     2.94971566     5.69948046     0.10264626    -0.26912192     0.37542613
Si     5.52133236     7.97805920     0.00609773     0.29951195     0.34816574    -0.19892879
Si     5.48733977     8.26613902     5.71819223     0.25531873     0.11416052    -0.04773831
Si     4.08222394     4.19731606     4.30846657    -0.10964025     0.25717022    -0.41915674
Si     4.07264752     4.48282674    10.01541860    -0.42303178     0.09518312    -0.10224999
Si     4.15522169     9.53076767     4.25310168    -0.56293809     0.10430480     0.42210770
Si     4.11127458     9.80752191     9.99370255    -0.12709167     0.03308597     0.10222759
Si     9.55156807     4.21555465     4.26822979    -0.47242227     0.02715360     0.11288558
Si     9.49511843     4.45975059    10.00385589    -0.19748965     0.37837666    -0.21533686
Si     9.59453665     9.56180003     4.28960030    -0.41233121    -0.04866155    -0.07236608
Si     9.58343078     9.81765831    10.00093521    -0.64205396    -0.11638226    -0.09507657
Si     2.73395171     0.00771548     0.01125482     0.10210857    -0.22665001    -0.04489192
Si     2.79903793    10.95419997     5.74270149     0.47448831    -0.13164857    -0.27799307
Si     2.75494482     5.34726987    -0.00048013     0.58211163    -0.26158631     0.29039818
Si     2.75852126     5.62261425     5.72573047     0.04615747    -0.22736971    -0.02615233
Si     8.21388776    11.20054068    11.42466829     0.47218403     0.32912344    -0.03201362
Si     8.12302118     0.28094891     5.69137574     0.64144956    -0.13131935     0.42214520
Si     8.19295753     5.32594853     0.01071377     0.45528296     0.19479771    -0.28718720
Si     8.21614326     5.61585322     5.72516415     0.09918156    -0.03436415    -0.10908772
Si     4.06710874     1.41752600     1.41331752    -0.03529260    -0.13269025     0.14886626
Si     4.07331688     1.66578071     7.15242257    -0.36893117     0.36155566    -0.23788961
Si     4.13154189     6.75063038     1.40999935    -0.38369077    -0.23034532     0.24865031
Si     4.07974757     7.01518228     7.12723329     0.05279313     0.00627832     0.27327464
Si     9.53147697     1.41557495     1.42541180    -0.44563071    -0.13418050     0.03069315
Si     9.51847357     1.67064027     7.14083616    -0.45988120     0.02592829    -0.30230608
Si     9.56414658     6.73819118     1.41728680    -0.09416455     0.01221470     0.07958033
Si     9.56597122     7.02623491     7.14175035    -0.48573226    -0.05997015     0.10264041
Si     2.75088590     2.78885206     2.85628238     0.16365280     0.12436809     0.15898121
Si     2.72849336     3.09003495     8.58275829     0.10442932    -0.18404927    -0.04885908
Si     2.77809960     8.13065006     2.85724892     0.37970166     0.07628227    -0.11220869
Si     2.75127423     8.42077278     8.56750478     0.45891408    -0.29056668     0.29346704
Si     8.17867319     2.80756838     2.87407358     0.24808014    -0.00662423    -0.17809905
Si     8.16511558     3.06938189     8.55364878     0.29115944    -0.02862392     0.09854340
Si     8.24302648     8.15830725     2.86357624     0.07442350    -0.16155206     0.04530996
Si     8.19439175     8.41768499     8.56247852     0.48454728     0.11804939     0.01495105
64
Lattice="10.87963 0.00000 0.00000 0.10333 10.67731 0.00000 -0.04693 0.54560 11.42487" Properties=species:S:1:pos:R:3:force:R:3 pbc="T T T" energy=-6856.052963 virial="-8.1505 5.5889 -2.7902 5.5889 -19.1019 35.3904 -2.7902 35.3904 32.0018"
Si     1.38626785     4.06254943     1.45493319    -0.08264115     0.18409595    -0.05382995
Si     1.34990008     4.37719972     7.13543155    -0.05948285    -0.42060986     0.11447240
Si     1.41636309     9.40011933     1.42799244    -0.06474983     0.11161271    -0.13361326
Si     1.44527802     9.66996875     7.17729458    -1.06837339     0.41904456    -0.55643640
Si     6.81368910     4.08697221     1.39965492    -0.35237283    -0.39973384     0.63652892
Si     6.79988812     4.31690456     7.12004846    -0.00097396     0.43944056     0.09372520
Si     6.89382457     9.40037760     1.39689777    -0.59966405     0.02368656     0.47459385
Si     6.86246354     9.69409259     7.10118844    -0.59864623    -0.04329575     0.18553926
Si    10.96804038    10.79711706     2.86756835     0.46800410     0.37817739    -0.16697380
Si    10.92098097    11.05793477     8.59317500     0.76261584     0.14868217    -0.25243623
Si     0.07790714     5.47377055     2.88414722     0.00548664     0.20412199    -0.40423776
Si     0.03426395     5.77031707     8.58471592    -0.12884904    -0.37752242     0.25207509
Si     5.41550135     0.14915703     2.88582655     0.53648605     0.01865845    -0.68329333
Si     5.48958533    11.06647787     8.57958062     0.75375901     0.07315351     0.12892837
Si     5.50606888     5.47815835     2.84631209    -0.42477748    -0.15205099     0.20091092
Si     5.43201243     5.70766221     8.57391753     0.37080820     0.35456704    -0.22667600
Si     1.35202472     1.56003922     4.27787940    -0.03219566    -0.62622235    -0.01182393
Si     1.31665929     1.78273275     9.98861373    -0.14724369     0.44952577     0.10074872
Si     1.41589188     6.87097149     4.30046012    -0.48664565     0.19118540     0.08118916
Si     1.37458233     7.14092065    10.02032425    -0.13637661     0.18594156    -0.61553346
Si     6.78363945     1.53883889     4.31377358    -0.46264329     0.32453043    -0.64429909
Si     6.79662015     1.84097562     9.98807786    -0.54299980    -0.48380473     0.05879915
Si     6.80436341     6.87382507     4.30377838     0.47166951     0.06793369    -0.25459950
Si     6.80566034     7.16900621     9.96436055    -0.16683624    -0.50745531     0.03830695
Si     0.03606608     2.70828960     0.01558188     0.43644296    -0.58449821    -0.06921896
Si     0.02411100     2.92385631     5.66612400     0.06459984     0.34257375     0.55840892
Si     0.06311539     8.52526202    11.39925097    -0.13264860     0.03548677     0.52005928
Si    10.90941143     8.29314274     5.73418634     0.87483788     0.01764793    -0.06485146
Si     5.46796558     2.67646363     0.01258515     0.45735349    -0.13426519    -0.09025308
Si     5.47844120     2.95882680     5.69260654    -0.16345568    -0.52733508     0.53818213
Si     5.48793118     8.51411532    11.41651404     0.15259985     0.45445934    -0.10385959
Si     5.49148829     8.25115982     5.72449110     0.11421368     0.30088724    -0.12585663
Si     4.06895238     4.17894189     4.32399384     0.09445739     0.54262008    -0.61887094
Si     4.07512153     4.47568247    10.02530163    -0.53011758     0.14296853    -0.06163614
Si     4.16357823     9.52887348     4.23723227    -0.70934991    -0.06275101     0.65396047
Si     4.10845729     9.81040899    10.00377170    -0.14327485    -0.04537655     0.06753252
Si     9.55903544     4.23041291     4.25911446    -0.51761747    -0.17066586     0.30060574
Si     9.48322731     4.44194215    10.01716306    -0.07721808     0.66174546    -0.37794184
Si     9.60511361     9.57333614     4.29098774    -0.60892189    -0.09416008     0.00920292
Si     9.59558495     9.81334988    10.01098310    -0.87994479    -0.25818403    -0.09099262
Si     2.74863968     0.01938545     0.02648653    -0.27817228    -0.44391765    -0.21097322
Si     2.70396336     0.27735442     5.75951535     0.35870484    -0.08995263    -0.51505265
Si     2.74402981     5.35115009     0.00640957     0.66869082    -0.37506439     0.26880087
Si     2.76433094     5.62932570     5.74250685    -0.02442754    -0.33820391    -0.23085058
Si     8.27229171    10.64345613     0.00865072     0.50560989     0.53740072    -0.18487935
Si     8.11332276     0.29272637     5.68243981     0.86013013    -0.23706810     0.52241097
Si     8.17881931     5.31325282     0.02370708     0.51960296     0.37377132    -0.63949652
Si     8.23063352     5.61907172     5.72829349    -0.03838157    -0.03740797    -0.04046634
Si     4.05420410     1.42077855     1.39819352     0.31194160    -0.14302895     0.45996517
Si     4.07159892     1.66241023     7.16347240    -0.17351954     0.46367474    -0.34570307
Si     4.12539380     6.75873110     1.39499712    -0.25986710    -0.31468279     0.38060694
Si     4.06373637     7.01631351     7.12225055     0.25129713     0.03763542     0.46571336
Si     9.53892648     1.42385613     1.41930770    -0.54847942    -0.14359476     0.22256514
Si     9.51542630     1.66978909     7.14176462    -0.32235772    -0.00300421    -0.38572307
Si     9.54618277     6.72279635     1.41078404     0.20213351     0.12380298     0.22364780
Si     9.56660895     7.04030125     7.15527293    -0.52943646    -0.17518162     0.04892343
Si     2.76286428     2.77639138     2.86065546     0.02403974     0.27336013     0.04689235
Si     2.74458562     3.08556756     8.59072008    -0.20717036    -0.09474999    -0.15596630
Si     2.76041232     8.11936884     2.84651234     0.54847089     0.19323089    -0.01744370
Si     2.74071116     8.42845526     8.55646091     0.65804789    -0.53352096     0.70668102
Si     8.16371436     2.81853785     2.89078810     0.34170274    -0.02651220    -0.43097168
Si     8.17321011     3.06782025     8.54756514     0.19618990     0.01584934     0.07298150
Si     8.25445913     8.17229255     2.86778895    -0.09246114    -0.36973160     0.10111412
Si     8.18832052     8.42838179     8.54634569     0.58253872     0.12237732     0.23108578
64
Lattice="10.87963 0.00000 0.00000 0.10333 10.67731 0.00000 -0.04693 0.54560 11.42487" Properties=species:S:1:pos:R:3:force:R:3 pbc="T T T" energy=-6855.454896 virial="-7.6812 4.5636 -2.3913 4.5636 -19.0739 32.9773 -2.3913 32.9773 30.7923"
Si     1.37997394     4.05962566     1.46607173     0.09003162     0.22321667    -0.01520552
Si     1.34465674     4.39260005     7.12527058     0.00178799    -0.64883621     0.29260033
Si     1.40046592     9.39164421     1.42960555     0.05085720     0.18557755    -0.24182214
Si     1.45577629     9.65926293     7.18883814    -1.41685129     0.71151995    -0.82484962
Si     6.79978961     4.09142971     1.38227625    -0.34671208    -0.57100029     0.95291016
Si     6.78886680     4.30816294     7.11372412     0.23300047     0.59055361     0.16067573
Si     6.90527747     9.39341177     1.38375521    -0.73507221     0.03573382     0.64158972
Si     6.87006533     9.69844704     7.08665735    -0.80822413    -0.04405901     0.24021827
Si    10.96286624    10.78678541     2.86960861     0.58278187     0.61765942    -0.26715100
Si    10.90532578    11.04314401     8.60809080     0.94566909     0.27586399    -0.49554499
Si     0.09484512     5.47529879     2.89935219    -0.12722268     0.29045846    -0.58388539
Si     0.04295768     5.78289089     8.59013591    -0.33173933    -0.56361581     0.28714124
Si     5.41966526     0.15291012     2.89977468     0.51515863     0.02159785    -1.02054839
Si     5.48343165    11.05873768     8.59077616     0.90191591     0.14715434     0.03732791
Si     5.52068651     5.48060834     2.83800015    -0.76651987    -0.18952957     0.27004825
Si     5.41796161     5.69114992     8.57341953     0.42649086     0.51898934    -0.26557418
Si     1.34920401     1.57422167     4.26944179     0.12759466    -1.02870421     0.02082066
Si     1.30681396     1.77185783     9.98276582    -0.00102274     0.56134974     0.20732999
Si     1.42191565     6.86875161     4.31511362    -0.55208550     0.27434618     0.07930810
Si     1.36447673     7.13862054    10.02749609     0.12545255     0.17283530    -0.81265178
Si     6.77558828     1.53403082     4.32083391    -0.46849204     0.49391446    -0.77676664
Si     6.81245331     1.84379007     9.98303602    -0.62775791    -0.62328915     0.14913179
Si     6.78729106     6.86777609     4.31588743     0.79032399     0.11136628    -0.40685227
Si     6.80069196     7.17662798     9.95122942    -0.07145811    -0.72047148    -0.01434200
Si     0.04456469     2.72404390     0.02193375     0.42666019    -0.79988455    -0.12206308
Si     0.03859269     2.91195371     5.64880576    -0.18273325     0.58271978     0.75076228
Si     0.07599869     8.50878513    11.38763195    -0.39232788     0.10173895     0.76333576
Si    10.89611429     8.30144894     5.74408816     1.08627345    -0.02162583    -0.08926657
Si     5.47386869     2.67522831     0.01466858     0.44402118    -0.22487052    -0.17329764
Si     5.49501142     2.96716390     5.68650889    -0.40872451    -0.75190644     0.65902159
Si     5.50159171     8.50524959    11.40199700     0.01067288     0.54959478     0.01896274
Si     5.49576990     8.23667747     5.73058195    -0.01337779     0.47566302    -0.16910769
Si     4.05588517     4.16141499     4.33858542     0.25079214     0.78570241    -0.76002729
Si     4.07685515     4.46877443    10.03504441    -0.63109893     0.18746433    -0.02796292
Si     4.17091557     9.52690399     4.22234856    -0.84990532    -0.21637339     0.85149180
Si     4.10545957     9.81321759    10.01387656    -0.17757146    -0.11441498     0.03305286
Si     9.56575137     4.24495344     4.25046250    -0.57405566    -0.35863569     0.46314834
Si     9.47129749     4.42514101    10.02987723     0.01873451     0.90864830    -0.50963079
Si     9.61479646     9.58467812     4.29237996    -0.80204651    -0.14155227     0.10037912
Si     9.60646472     9.80871197    10.02084958    -1.10987219    -0.39272903    -0.07257795
Si     2.76286356     0.03038125     0.04134316    -0.63962468    -0.67745881    -0.39071906
Si     2.71266501     0.27768930     5.77552854     0.25758530    -0.06062103    -0.70817377
Si     2.73409272     5.35449447     0.01362873     0.74429171    -0.47244728     0.24720840
Si     2.77007436     5.63553583     5.75887221    -0.07316057    -0.45345076    -0.43544478
Si     8.28439479    10.63277127     0.01720246     0.54418109     0.72753770    -0.31678099
Si     8.10485773     0.30411250     5.67427018     1.07402658    -0.33812276     0.61711903
Si     8.16547290     5.30114095     0.03575074     0.60952161     0.54121035    -0.96137222
Si     8.24498940     5.62222079     5.73134972    -0.15895548    -0.03709831     0.03508775
Si     4.04179975     1.42381674     1.38378518     0.63886384    -0.10599271     0.74092496
Si     4.06965288     1.65969415     7.17398614     0.00204764     0.53877375    -0.44506480
Si     4.11892430     6.76635489     1.38060111    -0.14321831    -0.38041667     0.47697502
Si     4.04815989     7.01748994     7.11793410     0.43655583     0.08660748     0.63569924
Si     9.54558237     1.43189381     1.41354303    -0.64036600    -0.15805623     0.37994572
Si     9.51195449     1.66893860     7.14215928    -0.19101029    -0.03746821    -0.46981372
Si     9.52859733     6.70765805     1.40462445     0.46538456     0.24387835     0.34457884
Si     9.56651759     7.05404815     7.16878623    -0.56055068    -0.29070756    -0.02051957
Si     2.77480800     2.76437561     2.86506812    -0.08754709     0.40702571    -0.05027467
Si     2.76030316     3.08099554     8.59842322    -0.48304961    -0.02673954    -0.22784445
Si     2.74357644     8.10841609     2.83581245     0.71044567     0.29340762     0.08844479
Si     2.73110944     8.43536329     8.54644774     0.88473700    -0.78227735     1.12119396
Si     8.14930820     2.82940908     2.90681772     0.43464001    -0.04329221    -0.64526473
Si     8.18152781     3.06628915     8.54161585     0.11084761     0.05930239     0.05443373
Si     8.26570055     8.18569227     2.87211644    -0.22942354    -0.56061569     0.14562666
Si     8.18308182     8.43918591     8.53062056     0.66117797     0.11540144     0.45407802
64
Lattice="10.87963 0.00000 0.00000 0.10333 10.67731 0.00000 -0.04693 0.54560 11.42487" Properties=species:S:1:pos:R:3:force:R:3 pbc="T T T" energy=-6854.694894 virial="-6.6891 3.4393 -2.0824 3.4393 -18.7783 29.6344 -2.0824 29.6344 29.0531"
Si     1.37388475     4.05704464     1.47704476     0.23612733     0.25572272    -0.00926232
Si     1.33948397     4.40691441     7.11564112     0.00422157    -0.83463074     0.42863851
Si     1.38484477     9.38353260     1.43086755     0.13119145     0.26168693    -0.35852967
Si     1.46420376     9.64966763     7.19910555    -1.74524842     0.98658247    -1.10634476
Si     6.78559738     4.09504972     1.36642439    -0.35919097    -0.70928191     1.21816301
Si     6.77830681     4.30034119     7.10770133     0.42972380     0.73307966     0.22218753
Si     6.91557798     9.38658525     1.37165938    -0.87231953     0.04001166     0.74918037
Si     6.87646490     9.70268476     7.07264305    -1.01138397    -0.04271623     0.27208745
Si    10.95855499    10.77743129     2.87125764     0.71053069     0.83581096    -0.35046423
Si    10.89116511    11.02892208     8.62213622     1.11913848     0.40721436    -0.71824904
Si     0.11138931     5.47720373     2.91356241    -0.22928132     0.35702483    -0.71793410
Si     0.05108552     5.79453183     8.59587748    -0.49173504    -0.73485110     0.29482731
Si     5.42447839     0.15664391     2.91214825     0.49705769     0.00830604    -1.28860680
Si     5.47858928    11.05129899     8.60187717     1.04978160     0.21962213    -0.03835489
Si     5.53406767     5.48276772     2.83016492    -1.03447085    -0.20936044     0.33642310
Si     5.40467566     5.67556077     8.57256543     0.49395282     0.66518069    -0.28848552
Si     1.34659416     1.58681537     4.26114225     0.25188836    -1.38203739     0.01538222
Si     1.29709518     1.76189062     9.97727696     0.12202969     0.66074805     0.29559811
Si     1.42710741     6.86693512     4.32968497    -0.62077089     0.35883511     0.06895859
Si     1.35467373     7.13658628    10.03346525     0.37357032     0.13832451    -0.98122682
Si     6.76700212     1.52995955     4.32674200    -0.47738151     0.64575301    -0.88730557
Si     6.82722366     1.84571699     9.97826331    -0.72575291    -0.73625935     0.22872932
Si     6.77151956     6.86195776     4.32728367     1.04513224     0.13832820    -0.54501770
Si     6.79569059     7.18316706     9.93824935     0.00306689    -0.89867574    -0.08303327
Si     0.05353537     2.73850141     0.02803642     0.41886093    -0.98556270    -0.16220374
Si     0.05263671     2.90100135     5.63273757    -0.39507039     0.79690169     0.96150408
Si     0.08817895     8.49266126    11.37720609    -0.61862891     0.18180249     1.00837360
Si    10.88447299     8.30961767     5.75373944     1.27290054    -0.05833412    -0.10463123
Si     5.48030131     2.67370204     0.01648834     0.43393621    -0.33226619    -0.24353258
Si     5.51080829     2.97436611     5.68139022    -0.61895723    -0.93267510     0.74043863
Si     5.51508930     8.49724941    11.38769449    -0.10597356     0.62991134     0.17125978
Si     5.49997761     8.22303272     5.73636278    -0.11591541     0.63220977    -0.16833100
Si     4.04333016     4.14518854     4.35194975     0.34928202     0.98610800    -0.84196592
Si     4.07770463     4.46221210    10.04462241    -0.73079322     0.23007250    -0.00418879
Si     4.17699722     9.52466469     4.20882077    -0.98578627    -0.34116458     1.00100738
Si     4.10225837     9.81583349    10.02389523    -0.24434794    -0.16881203     0.00004212
Si     9.57159629     4.25881539     4.24255530    -0.64933891    -0.51949189     0.58717970
Si     9.45954828     4.40979875    10.04173039     0.08886817     1.11543855    -0.60970738
Si     9.62325849     9.59567946     4.29389113    -0.98786227    -0.18694544     0.19809518
Si     9.61568784     9.80359814    10.03048876    -1.32821655    -0.50787617    -0.04760396
Si     2.77602935     0.04030925     0.05547330    -0.95351016    -0.91777705    -0.57000330
Si     2.72160525     0.27793707     5.79036678     0.18075448    -0.04713131    -0.85237368
Si     2.72530092     5.35715036     0.02109158     0.81371650    -0.55105414     0.22692281
Si     2.77564325     5.64104617     5.77443040    -0.08064126    -0.56869127    -0.62461936
Si     8.29708353    10.62321854     0.02521057     0.58864309     0.88787417    -0.41559504
Si     8.09796903     0.31488905     5.66704925     1.27911677    -0.43060069     0.70074534
Si     8.15313209     5.28992536     0.04632536     0.72301694     0.68596694    -1.23105797
Si     8.25894171     5.62527829     5.73441413    -0.24844860    -0.03578639     0.11833422
Si     4.03042881     1.42667074     1.37057562     0.92322999    -0.03328616     0.97009894
Si     4.06773492     1.65774894     7.18375563     0.14223504     0.58769845    -0.54353207
Si     4.11234335     6.77336023     1.36704338    -0.04830766    -0.42699388     0.52923615
Si     4.03338185     7.01876932     7.11454165     0.59307852     0.14816714     0.76950160
Si     9.55127749     1.43961125     1.40837201    -0.72680368    -0.17251247     0.49200923
Si     9.50826702     1.66804801     7.14190739    -0.07478661    -0.07451051    -0.55871074
Si     9.51187579     6.69304944     1.39901535     0.67704513     0.36658041     0.42963570
Si     9.56566212     7.06721951     7.18209591    -0.58173934    -0.40484749    -0.11005890
Si     2.78647699     2.75307168     2.86935480    -0.15511646     0.51654036    -0.12282724
Si     2.77515696     3.07644643     8.60571518    -0.71085023     0.01484124    -0.26218039
Si     2.72792930     8.09800624     2.82537237     0.86967752     0.37229251     0.20455114
Si     2.72284039     8.44111353     8.53809542     1.13147208    -1.01770266     1.50873420
Si     8.13568264     2.84007993     2.92175807     0.53076133    -0.06248739    -0.81302449
Si     8.18988874     3.06485891     8.53581818     0.04824894     0.09705293     0.04617905
Si     8.27648266     8.19815248     2.87658652    -0.32398464    -0.73428278     0.18653344
Si     8.17881387     8.45000718     8.51571972     0.72019854     0.09676670     0.67893269
64
Lattice="10.87963 0.00000 0.00000 0.10333 10.67731 0.00000 -0.04693 0.54560 11.42487" Properties=species:S:1:pos:R:3:force:R:3 pbc="T T T" energy=-6853.872303 virial="-5.4500 2.3302 -1.8770 2.3302 -18.3393 25.6593 -1.8770 25.6593 27.1671"
Si     1.36822878     4.05485917     1.48780384     0.35568086     0.28429493    -0.02643799
Si     1.33441186     4.41982971     7.10677198    -0.03952873    -0.97547318     0.53155030
Si     1.36968887     9.37592612     1.43161822     0.18380030     0.34030615    -0.46817773
Si     1.47010031     9.64159171     7.20767819    -2.02336365     1.22233046    -1.36149195
Si     6.77117649     4.09763756     1.35252202    -0.37188225    -0.80400232     1.43108823
Si     6.76852568     4.29366110     7.10209158     0.58822389     0.86480476     0.28398432
Si     6.92450175     9.37993846     1.36080556    -1.00041150     0.04528253     0.80519005
Si     6.88136996     9.70678656     7.05925636    -1.19457533    -0.03739075     0.29447378
Si    10.95529030    10.76938682     2.87239922     0.83615906     1.02366436    -0.41794317
Si    10.87878808    11.01551556     8.63494596     1.27111150     0.53234426    -0.91651088
Si     0.12731774     5.47955983     2.92653437    -0.30662632     0.40345519    -0.81120517
Si     0.05839469     5.80495861     8.60191514    -0.61726639    -0.88878885     0.27304118
Si     5.42987998     0.16032051     2.92254023     0.47328187    -0.02406770    -1.49242324
Si     5.47526513    11.04429582     8.61272227     1.18879768     0.28794288    -0.10332153
Si     5.54579480     5.48460243     2.82293152    -1.23565936    -0.21561873     0.39857776
Si     5.39230605     5.66116335     8.57133420     0.56536320     0.79049317    -0.30138580
Si     1.34437516     1.59729624     4.25301594     0.34225477    -1.67759300    -0.01407142
Si     1.28772087     1.75300595     9.97229130     0.22128294     0.74369095     0.36876344
Si     1.43135868     6.86564055     4.34408285    -0.68829460     0.44032354     0.05344132
Si     1.34555925     7.13477769    10.03798886     0.60386944     0.08524181    -1.10970053
Si     6.75792351     1.52684223     4.33133355    -0.47647169     0.76902911    -0.96655256
Si     6.84073483     1.84660608     9.97388960    -0.82666707    -0.82449037     0.29873397
Si     6.75746048     6.85643453     4.33772871     1.23719256     0.14867821    -0.66148613
Si     6.79078516     7.18836255     9.92539438     0.06081992    -1.04024169    -0.15578101
Si     0.06291176     2.75135172     0.03380626     0.40781740    -1.13611734    -0.19506615
Si     0.06588512     2.89133500     5.61827337    -0.56795563     0.97611942     1.17585023
Si     0.09929340     8.47708077    11.36834450    -0.80956971     0.27052807     1.24189151
Si    10.87477845     8.31755708     5.76307116     1.42328444    -0.09048958    -0.11656568
Si     5.48720673     2.67175136     0.01794313     0.42165536    -0.44937855    -0.30616000
Si     5.52547255     2.98016625     5.67737364    -0.79715499    -1.06390111     0.78348234
Si     5.52819493     8.49025370    11.37388759    -0.19566528     0.69563737     0.33989485
Si     5.50395029     8.21049914     5.74180835    -0.19636547     0.76984175    -0.13450674
Si     4.03148109     4.13060249     4.36392246     0.40852537     1.14616177    -0.87207738
Si     4.07754349     4.45608344    10.05401897    -0.82132144     0.26957154     0.01194367
Si     4.18162506     9.52200195     4.19690415    -1.10558835    -0.42785488     1.10410222
Si     4.09878321     9.81817153    10.03373014    -0.33135825    -0.20855936    -0.02815956
Si     9.57644983     4.27171566     4.23559267    -0.73525260    -0.64443137     0.67417829
Si     9.44813564     4.39625676    10.05253590     0.14593917     1.28082102    -0.67638115
Si     9.63022018     9.60622439     4.29564430    -1.15113224    -0.22889212     0.29669382
Si     9.62293326     9.79788664    10.03988625    -1.52074489    -0.59738994    -0.02247781
Si     2.78765529     0.04880546     0.06856807    -1.21612857    -1.15092900    -0.74274588
Si     2.73062756     0.27811611     5.80377219     0.12282147    -0.05039245    -0.95927141
Si     2.71777837     5.35900722     0.02872648     0.87162176    -0.61063785     0.20185309
Si     2.78100017     5.64568109     5.78885265    -0.05543246    -0.67875309    -0.79235028
Si     8.31034094    10.61505000     0.03250589     0.62580799     1.01147850    -0.48109201
Si     8.09294835     0.32488156     5.66091493     1.45609206    -0.50891683     0.76273216
Si     8.14200216     5.27984957     0.05502977     0.83909504     0.79950149    -1.44252771
Si     8.27229974     5.62823096     5.73758345    -0.31078736    -0.03549440     0.19761863
Si     4.02052357     1.42942705     1.35892932     1.16318542     0.05730365     1.14759631
Si     4.06604582     1.65663961     7.19260580     0.24808483     0.61246964    -0.63276118
Si     4.10581737     6.77965565     1.35445500     0.02519302    -0.45774804     0.54846091
Si     4.01968248     7.02022696     7.11225918     0.72506389     0.21376462     0.87048623
Si     9.55587851     1.44695219     1.40396577    -0.80318247    -0.18428540     0.56739988