32
Lattice="6.89507 0.00000 0.00000 0.12960 6.76154 0.00000 -0.11958 -0.21773 6.73813" Properties=species:S:1:pos:R:3:force:R:3 pbc="T T T" energy=-124971.3764 virial="-569.2050 -23.9524 19.1711 -23.9524 -581.5980 -6.3442 19.1711 -6.3442 -580.4260"
Ag     3.45373415     3.30115142     3.35076939     0.60749142    -1.08907022     0.34555585
Ag     6.88181067     3.26704365     3.38557683     0.57792092     0.82930539    -0.50716572
Ag     5.13290000     3.21066062     5.04970684    -0.16843930    -0.18527930     0.74450662
Ag     1.71538349     3.19617799     5.04579333    -0.21520740     0.94141605     0.69070276
Ag     6.95218914     5.00942841     1.66193761     0.41538308     0.39453674     0.86433422
Ag     0.01849546     0.02803940     0.01293440    -0.23474443    -0.48664712    -0.89487114
Ag    -0.05758569     3.15077545     6.73271395     0.01113522     0.67838288    -0.25646420
Ag     3.45896632     6.54697718     6.72382934    -0.60539408     0.15823945     0.43135507
Ag     1.76598041     4.94820059     3.37549904    -0.97100951     0.35883600     0.07692326
Ag     5.26537444     5.07062329     0.01952901     0.00099832    -0.54117187    -0.93283888
Ag     3.37951554    -0.10136819     3.36407251     0.29755593    -0.55248565    -0.81594559
Ag     1.76081730     3.33666782     1.69948571    -0.71685467    -0.79417054    -0.57713409
Ag     5.20056503     1.67308164     0.01635695    -0.04841569     1.10272462    -0.07771997
Ag     1.77062768     6.59054821     5.05344654    -0.71539172    -0.37772385     0.09745615
Ag     6.88851139     4.91493540     5.06380550     0.83197757    -0.16559574     0.07529028
Ag     6.82975481     1.54369722     5.05135366    -0.04656195    -1.07092432    -0.53869634
Ag     3.45041267     4.88956610     5.04255566     0.09749817     0.86743978     0.85091308
Ag     5.20436929     4.98742151     3.39389922     0.42269221    -0.21961385    -0.79994976
Ag     3.52188415     3.38112909     0.01945209    -0.11132960    -0.06784690    -1.41137732
Ag     5.14323740     1.56242517     3.37281941     0.23278698    -0.11066706    -0.28024910
Ag     3.40222666     1.49384438     5.02107410     0.15122434     2.07380558     1.21493949
Ag     0.01681324     1.65062807     1.68456101    -0.33389583     0.27115545     0.19359638
Ag     1.82018699     5.07696157     0.00849600    -0.06249344    -0.88312263    -0.59876251
Ag     1.68624470    -0.04926791     1.67866658     0.84655628     0.09705557     0.35111395
Ag     5.21571076     6.59105871     5.08236705     0.41119815    -0.11001164    -0.57145846
Ag     3.50711240     5.02485890     1.68079569     0.22590138     0.66515424     0.00819416
Ag     5.26325583     6.70893114     1.66554431     0.29198988    -0.13758531     1.28989446
Ag     3.45593064     1.66702638     1.68459613    -0.62721610    -1.09131868    -0.24190095
Ag     1.70227972     1.57816443     3.37915130    -0.31558488     0.01802512    -0.45319456
Ag     5.21353998     3.34455599     1.70475368     0.10664380    -0.81205009    -0.04808943
Ag     1.64522955     1.48763165     6.70638199     0.47339483    -0.32848558     1.40973051
Ag     0.09222920     6.64275315     3.35081026    -0.82939499     0.56682754     0.36037106
32
Lattice="6.89507 0.00000 0.00000 0.12960 6.76154 0.00000 -0.11958 -0.21773 6.73813" Properties=species:S:1:pos:R:3:force:R:3 pbc="T T T" energy=-124971.1501 virial="-570.3790 -24.2828 19.3794 -24.2828 -581.9170 -7.1219 19.3794 -7.1219 -580.5410"
Ag     3.44910634     3.29837362     3.35974521     0.87627305    -0.90276677    -0.05836282
Ag     6.87792823     3.27989396     3.37739203     0.81516248     0.01638611    -0.01333483
Ag     5.12049706     3.20379587     5.05127545     0.40705542     0.18224784     0.84436669
Ag     1.72517789     3.18736897     5.05580639    -0.54726179     1.19997924     0.34276273
Ag     6.94187322     5.01356484     1.64752344     1.00895787     0.27895919     1.40467311
Ag     0.00988725     0.02042162     0.00766330    -0.01424097    -0.15428319    -0.76388483
Ag    -0.04764403     3.14537140     6.72163340    -0.19612930     0.72396739    -0.31825199
Ag     3.33611951    -0.21102650     6.71217203    -0.70130924    -0.03932824     1.05650149
Ag     1.76101825     4.93962726     3.37733675    -0.55012234     0.89806599    -0.21202950
Ag     5.25187904     5.05866799     0.03141423     0.54818068    -0.39428000    -2.38313279
Ag     3.39285140    -0.10053516     3.37647319    -0.37381970    -0.84875825    -1.86792308
Ag     1.76763567     3.34695754     1.70328872    -1.07561077    -1.24211848    -0.83742342
Ag     5.20296295     1.67621957     0.02825349    -0.23002058     1.04315440     0.08672388
Ag     1.76450214     6.58428806     5.06204186    -0.47639020    -0.32666969    -0.38957373
Ag     6.90067400     4.91705452     5.05697327    -0.19657073    -0.51958570     0.41364410
Ag     6.81807674     1.52998783     5.05120292     0.50771632    -0.23003333    -0.82315907
Ag     3.44835197     4.90170208     5.03610365     0.10505294     0.45935936     1.27774564
Ag     5.19699220     4.97813074     3.38903871     0.58122477     0.16239412    -0.16135903
Ag     3.52737179     3.37909778     0.03064331    -0.46996048    -0.20512839    -2.06891652
Ag     5.13565926     1.56029454     3.37931549     0.67193045    -0.09671492    -1.07974018
Ag     3.39664377     1.48998797     5.02783262     0.37672166     2.25486666     1.13485556
Ag     0.03009412     1.65359721     1.68057193    -0.68280259     0.21934552     0.47612440
Ag     1.80612512     5.07195134     0.01827479     0.66659259    -0.79878372    -0.87584043
Ag     1.68280095    -0.04253766     1.66828166     1.40353581    -0.45098074     0.93744011
Ag     5.09218997    -0.15724153     5.08736071     0.43055887    -1.15879353    -0.72077726
Ag     3.51834458     5.01515633     1.66631123    -0.61960207     1.64839901     1.06488486
Ag     5.27355048     6.69586178     1.65588511    -0.20315513     0.87737545     1.99471523
Ag     3.44402562     1.67333963     1.69245888     0.01408473    -1.55984312    -0.42627110
Ag     1.70613820     1.57736925     3.38081219    -0.83737234    -0.17504757    -0.18787814
Ag     5.22676484     3.35170970     1.69914534    -0.18930198    -1.73068448     0.40352324
Ag     1.65577426     1.47989269     6.69539084    -0.09744627    -0.09119810     2.01301279
Ag     0.09520038     6.63103174     3.35584617    -0.95331401     0.96823594    -0.26430531
32
Lattice="6.89507 0.00000 0.00000 0.12960 6.76154 0.00000 -0.11958 -0.21773 6.73813" Properties=species:S:1:pos:R:3:force:R:3 pbc="T T T" energy=-124970.6008 virial="-572.0480 -24.3033 19.5707 -24.3033 -583.0940 -7.5682 19.5707 -7.5682 -581.5630"
Ag     3.44481837     3.29529012     3.36864735     1.09167513    -0.70786311    -0.40490262
Ag     6.87435945     3.29267445     3.36925066     1.02233067    -0.77930025     0.48754998
Ag     5.10831236     3.19703654     5.05313605     0.95010711     0.53968451     0.92421968
Ag     1.73471939     3.17903990     5.06588277    -0.87283756     1.49304798    -0.01142848
Ag     6.93197797     5.01777642     1.63369523     1.61243767     0.11043662     1.92393419
Ag     0.00132464     0.01279366     0.00215074     0.21014323     0.16317707    -0.57907924
Ag    -0.03783088     3.14025743     6.71050456    -0.42522618     0.72425418    -0.33724154
Ag     3.34257858    -0.20752351     6.70096025    -0.75423666    -0.25649617     1.70628025
Ag     1.75588905     4.93142478     3.37908800    -0.09545174     1.41896695    -0.49242837
Ag     5.23865865     5.04664244     0.04237933     1.11132732    -0.18829779    -3.83378691
Ag     3.40597538    -0.10000982     3.38813451    -1.00143297    -1.07933334    -2.77380954
Ag     1.77403018     3.35674357     1.70677059    -1.41584112    -1.63786464    -1.06759043
Ag     5.20526470     1.67971115     0.04011093    -0.37070370     0.97698744     0.21067004
Ag     1.75824272     6.57794823     5.07044760    -0.23838965    -0.24210854    -0.86239589
Ag     0.01762654     4.91897580     5.05032883    -1.16198257    -0.91095280     0.73525859
Ag     6.80664856     1.51627709     5.05075941     1.08497854     0.59368790    -1.05134980
Ag     3.44634088     4.91393048     5.03014544     0.12766054     0.01684745     1.65150355
Ag     5.18986590     4.96895259     3.38414926     0.73203984     0.53578518     0.40878263
Ag     3.53265946     3.37700527     0.04103057    -0.84592837    -0.41087883    -2.63340638
Ag     5.12836544     1.55814196     3.38538814     1.10400845    -0.02439179    -1.85212716
Ag     3.39122814     1.48695866     5.03495619     0.62538471     2.34529516     0.99041872
Ag     0.04305322     1.65662712     1.67677619    -0.99722137     0.14765494     0.71243893
Ag     1.79238384     5.06668567     0.02768355     1.39763891    -0.67248583    -1.16363597
Ag     1.67987818    -0.03600791     1.65829230     1.85735246    -0.95411622     1.45458093
Ag     5.09838281    -0.14449160     5.09206784     0.34827719    -2.13639202    -0.86356648
Ag     3.52928960     5.00609893     1.65229193    -1.46173512     2.52726049     2.10969028
Ag     5.28371205     6.68318237     1.64699438    -0.71883637     1.87007246     2.63261765
Ag     3.43219572     1.67905926     1.70012327     0.63350099    -2.00336331    -0.60795320
Ag     1.70967523     1.57651630     3.38239628    -1.31668688    -0.34945020     0.05715404
Ag     5.23984430     3.35820389     1.69371398    -0.48715215    -2.60771274     0.81690691
Ag     1.66622212     1.47216678     6.68518251    -0.67142488     0.16003487     2.55811356
Ag     0.09781398     6.61972475     3.36075814    -1.06627865     1.33326393    -0.84922281
32
Lattice="6.89507 0.00000 0.00000 0.12960 6.76154 0.00000 -0.11958 -0.21773 6.73813" Properties=species:S:1:pos:R:3:force:R:3 pbc="T T T" energy=-124969.7961 virial="-574.2820 -24.2378 19.7070 -24.2378 -585.0470 -7.8049 19.7070 -7.8049 -583.2430"
Ag     3.44097745     3.29199764     3.37728282     1.25127601    -0.50577131    -0.71190226
Ag     6.87120316     3.30500174     3.36139484     1.19848534    -1.53423730     0.96725013
Ag     5.09663333     3.19056223     5.05529937     1.45962678     0.87262555     0.97187783
Ag     1.74381914     3.17135624     5.07581609    -1.17630766     1.79386701    -0.37070007
Ag     6.92279216     5.02196915     1.62074140     2.18988585    -0.09490132     2.40679349
Ag     6.76843818    -0.21239636     6.73463956     0.43800333     0.46018853    -0.35218638
Ag    -0.02830419     3.13547135     6.69940941    -0.67280062     0.69373032    -0.30621998
Ag     3.34868054    -0.20415999     6.69050942    -0.77700060    -0.47660348     2.34018972
Ag     1.75079669     4.92383965     3.38064013     0.37198793     1.89649730    -0.74160243
Ag     5.22601552     5.03471587     0.05183094     1.67229111     0.07180923    -5.18500665
Ag     3.41856248    -0.09987523     3.39864936    -1.58031572    -1.23156285    -3.53655689
Ag     1.77983340     3.36581263     1.70982510    -1.72030774    -1.99362913    -1.25933056
Ag     5.20740298     1.68350172     0.05187965    -0.47267991     0.87801780     0.27789136
Ag     1.75198494     6.57160984     5.07843096    -0.00102711    -0.13242453    -1.29731435
Ag     0.02906871     4.92054690     5.04403730    -2.04376822    -1.30210120     1.03497078
Ag     6.79576354     1.50296643     5.04994846     1.66887197     1.39130600    -1.22635659
Ag     3.44440289     4.92599617     5.02485624     0.15961387    -0.45000851     1.95654317
Ag     5.18309800     4.96009144     3.37947250     0.87584563     0.88340257     0.90984051
Ag     3.53757362     3.37479562     0.05033884    -1.22109829    -0.64176657    -3.09265243
Ag     5.12156451     1.55601040     3.39071892     1.50835936     0.08420288    -2.55727641
Ag     3.38610944     1.48480448     5.04233341     0.89268272     2.35427486     0.77196878
Ag     0.05547922     1.65966769     1.67328596    -1.28209421     0.06466383     0.90032303
Ag     1.77932872     5.06125368     0.03654905     2.10105477    -0.51361284    -1.44872718
Ag     1.67765568    -0.02990726     1.64895758     2.20719344    -1.40817369     1.90648562
Ag     5.10461398    -0.13267667     5.09640319     0.16631693    -3.02115527    -0.99710102
Ag     3.53956424     4.99806447     1.63921564    -2.27085012     3.28104186     3.10284245
Ag     5.29347803     6.67134234     1.63916171    -1.23178027     2.78728888     3.18524584
Ag     3.42075410     1.68398815     1.70746591     1.21533587    -2.39041664    -0.78184512
Ag     1.71269563     1.57555095     3.38397883    -1.73982885    -0.50326847     0.28342509
Ag     5.25257023     3.36368192     1.68864780    -0.78788653    -3.39635003     1.19306369
Ag     1.67628728     1.46460430     6.67602396    -1.23543186     0.40707989     3.04503372
Ag     0.10001266     6.60904748     3.36530060    -1.16529641     1.67469841    -1.39073405
32
Lattice="6.89507 0.00000 0.00000 0.12960 6.76154 0.00000 -0.11958 -0.21773 6.73813" Properties=species:S:1:pos:R:3:force:R:3 pbc="T T T" energy=-124968.83 virial="-576.9000 -24.1230 19.7075 -24.1230 -587.4230 -7.9496 19.7075 -7.9496 -585.2610"
Ag     3.43765616     3.28859148     3.38549436     1.35635949    -0.30306063    -0.98375058
Ag     6.86853418     3.31654038     3.35403789     1.34768056    -2.21952947     1.40495024
Ag     5.08570363     3.18452579     5.05776394     1.93157441     1.15213012     0.98398862
Ag     1.75232121     3.16446083     5.08542053    -1.44448940     2.09033305    -0.72623046
Ag     6.91456477     5.02604487     1.60889776     2.71262242    -0.32129004     2.82826643
Ag     6.88998578     6.54199187     6.72898474     0.67113384     0.73666704    -0.10071035
Ag    -0.01920530     3.13102620     6.68842646    -0.93316351     0.63861802    -0.23907733
Ag     3.35438591    -0.20103219     6.68109540    -0.76300942    -0.68970231     2.92938392
Ag     1.74593738     4.91707717     3.38189868     0.83200753     2.30356471    -0.95118381
Ag     5.21421621     5.02305193     0.05925787     2.21974933     0.37073682    -6.37763315
Ag     3.43033945    -0.10017958     3.40770233    -2.09362659    -1.29973957    -4.14110603
Ag     1.78491182     3.37399512     1.71237276    -1.96455419    -2.30148064    -1.40239977
Ag     5.20933129     1.68752792     0.06351274    -0.53959694     0.73528021     0.28933468
Ag     1.74585126     6.56535059     5.08579599     0.24162526     0.00245918    -1.67571331
Ag     0.03955935     4.92162551     5.03823753    -2.82426658    -1.67242468     1.30247704
Ag     6.78568618     1.49041336     5.04871922     2.23320172     2.15032456    -1.35266411
Ag     3.44255998     4.93766249     5.02036530     0.18767443    -0.91219724     2.18879557
Ag     5.17677497     4.95171945     3.37521105     1.00002924     1.17634960     1.33446586
Ag     3.54195748     3.37240258     0.05836646    -1.58268566    -0.87762071    -3.43942624
Ag     5.11543315     1.55395107     3.39503781     1.86304235     0.21504211    -3.15456630
Ag     3.38140875     1.48352709     5.04983736     1.17264707     2.28507322     0.48060353
Ag     0.06720392     1.66267070     1.67018406    -1.52729851    -0.02010892     1.03552996
Ag     1.76727752     5.05574779     0.04472505     2.75286832    -0.33120139    -1.71153781
Ag     1.67625925    -0.02442677     1.64048386     2.45875479    -1.81630624     2.28211297
Ag     5.11078012    -0.12216690     5.10029911    -0.09866945    -3.79064469    -1.11423226
Ag     3.54883013     4.99135205     1.62749855    -3.01675254     3.90205812     4.00396469
Ag     5.30261343     6.66072514     1.63261314    -1.72127114     3.59162882     3.63220730
Ag     3.40997056     1.68797225     1.71438557     1.74049568    -2.70057879    -0.94518183
Ag     1.71503965     1.57442652     3.38563029    -2.10132032    -0.64331081     0.50453351
Ag     5.26476397     3.36784790     1.68410500    -1.07522615    -4.06042791     1.52474091
Ag     1.68571464     1.45733643     6.66812620    -1.78804260     0.62525354     3.47121520
Ag     0.10175482     6.59917579     3.36926008    -1.24715140     1.97766279    -1.88224991
32
Lattice="6.84288 0.00000 0.00000 0.26132 6.79042 0.00000 0.00884 -0.13282 7.00485" Properties=species:S:1:pos:R:3:force:R:3 pbc="T T T" energy=-124990.2734 virial="-514.5570 1.9708 -6.0074 1.9708 -530.3290 21.7346 -6.0074 21.7346 -490.7470"
Ag     3.55328353     3.35615483     3.48359300     0.73101884    -1.06033508     0.64992987
Ag     6.95835064     3.32313958     3.52620415     0.48413651     0.42231681    -0.87266983
Ag     5.25731752     3.31210205     5.23958486     0.05673798    -1.02765863     0.59816782
Ag     1.85456735     3.28299748     5.24406597     0.05201853     0.40717325     0.47156175
Ag     7.03471815     5.06093685     1.73707649     0.05389789    -0.00823817     0.54131268
Ag     0.02312680     0.02189565     0.00162237    -0.25941048    -0.40995660     0.00378223
Ag     0.12982870     3.25348419     7.00003364    -0.08763214     0.25802942    -0.12512387
Ag     3.69122214     6.64713990     6.98950783    -0.64974969     0.62280795     0.76093131
Ag     1.90250111     5.00273873     3.52018953    -0.73295667     1.00895783    -0.23237791
Ag     5.31546932     5.08683047     0.01894597     0.44669033     0.08065853    -0.35315945
Ag     3.41694074    -0.06937243     3.50301249     0.14095624    -0.21980016    -0.40117783
Ag     1.84768300     3.38258697     1.75886026    -0.63470920    -1.02633761    -0.33852552
Ag     5.19304999     1.68023946     0.01318499    -0.23990820     1.01456807    -0.23168834
Ag     1.99301230     6.68417198     5.25043506    -0.76967950    -0.17080431    -0.05828988
Ag     7.02707289     5.00260180     5.26871015     1.00284354    -0.44913480     0.08859722
Ag     6.90460531     1.59919406     5.24476110    -0.15963994    -0.28134994     0.16097563
Ag     3.62110336     4.97559430     5.25529942    -0.22333076     0.61705257     0.08233903
Ag     5.33604177     5.06104847     3.51750598     0.08732039    -0.51216144    -0.48763273
Ag     3.56353530     3.40222933     0.01116046    -0.14928742    -0.65936786    -0.57233283
Ag     5.20333443     1.61686465     3.50716574    -0.39869276     0.18634060    -0.31511449
Ag     3.50838577     1.56577481     5.22718191     0.07113162     1.61679141     0.84312952
Ag     0.06522686     1.68597781     1.74681021     0.13712493     0.01734107     0.29094283
Ag     1.90219465     5.08706950     0.00545890    -0.11770005    -0.13244384    -0.36268165
Ag     1.69525270    -0.02868410     1.75286011     0.80552259     0.36799942    -0.16239632
Ag     5.41105944     6.67483763     5.28158344    -0.12967133     0.41839579    -0.48626738
Ag     3.60610433     5.07243623     1.75822618    -0.13060573     0.35751552    -0.11383287
Ag     5.38389556     6.75171563     1.74046037     0.36684324     0.37852981     0.27819761
Ag     3.49025353     1.68369529     1.76033135    -0.53888314    -0.75071215    -0.50229158
Ag     1.78813407     1.63296841     3.51410513    -0.50433266     0.20354850    -0.60047018
Ag     5.25807113     3.39198507     1.77300377     0.49046297    -0.86345672    -0.19995239
Ag     1.78672236     1.58473994     6.96506864     0.63813074    -0.40564426     1.39602376
Ag     0.27176160     6.72666131     3.49007728     0.16147109    -0.00133934     0.24962966
32
Lattice="6.84288 0.00000 0.00000 0.26132 6.79042 0.00000 0.00884 -0.13282 7.00485" Properties=species:S:1:pos:R:3:force:R:3 pbc="T T T" energy=-124990.1089 virial="-515.8320 2.4612 -5.7020 2.4612 -529.3310 20.6491 -5.7020 20.6491 -491.6280"
Ag     3.54867781     3.35338217     3.49262326     1.11749665    -0.95616848     0.33136694
Ag     6.95445143     3.33591708     3.51795396     0.82058101    -0.35584008    -0.37044093
Ag     5.24495486     3.30508659     5.24112729     0.70913451    -0.67158730     0.70091981
Ag     1.86440956     3.27409289     5.25403983    -0.11649703     0.67020463     0.20823013
Ag     7.02433756     5.06500122     1.72260453     0.53281537    -0.16140522     0.96468360
Ag     0.02335129    -0.11853338     7.00136046     0.02697091    -0.16970363     0.16242339
Ag     0.13975269     3.24800494     6.98897659    -0.21883752     0.25668144    -0.10282478
Ag     3.69796319     6.65076085     6.97790948    -0.60827700     0.36373444     1.32450361
Ag     1.89758153     4.99428170     3.52197191    -0.48503636     1.41908560    -0.60441268
Ag     5.30205365     5.07498642     0.03093490     0.84537801     0.19986657    -1.68920279
Ag     3.69156362     6.72193825     3.51548737    -0.34616422    -0.44691197    -1.17098279
Ag     1.85451606     3.39283516     1.76270596    -0.81214323    -1.30468031    -0.40160221
Ag     5.19541366     1.68336162     0.02505399    -0.51456134     0.95660049    -0.15748921
Ag     1.98687705     6.67794885     5.25900252    -0.42228453    -0.03106922    -0.38986573
Ag     7.03926607     5.00467019     5.26188030    -0.06312621    -0.70896088     0.35022488
Ag     6.89290702     1.58562591     5.24473553     0.21265205     0.51942547    -0.18992778
Ag     3.61898526     4.98768549     5.24870991    -0.27313443     0.22893401     0.42943246
Ag     5.32860468     5.05170536     3.51270134     0.05588878    -0.18617870    -0.11139777
Ag     3.56901615     3.40009221     0.02250178    -0.40625911    -0.70813881    -1.01723836
Ag     5.19564332     1.61478716     3.51365559    -0.11590732     0.18266879    -1.02940388
Ag     3.50278855     1.56183665     5.23387391     0.17001294     1.76913293     0.65354472
Ag     0.07859200     1.68890154     1.74283855    -0.34008819     0.04187773     0.48675900
Ag     1.88812290     5.08219357     0.01527992     0.42087711    -0.06411948    -0.69451289
Ag     1.69180162    -0.02190538     1.74238332     1.50709994    -0.21051324     0.36379631
Ag     5.41703770     6.68817344     5.28659234     0.08729042    -0.54035447    -0.50115594
Ag     3.61727273     5.06267863     1.74371988    -1.04773625     1.26727169     0.69241936
Ag     5.39420361     6.73873860     1.73062019    -0.04671778     1.35362926     0.92489348
Ag     3.47836431     1.69006948     1.76814752    -0.00486190    -1.16321232    -0.68303913
Ag     1.79195878     1.63220641     3.51573968    -1.16792054     0.04517932    -0.41447045
Ag     5.27136465     3.39912958     1.76736827     0.41363462    -1.70482116     0.32034322
Ag     1.79729655     1.57698718     6.95407503    -0.04642614    -0.24518376     1.80577962
Ag     0.27491004     6.71483825     3.49509338     0.11584537     0.35595461    -0.19163186
32
Lattice="6.84288 0.00000 0.00000 0.26132 6.79042 0.00000 0.00884 -0.13282 7.00485" Properties=species:S:1:pos:R:3:force:R:3 pbc="T T T" energy=-124989.6576 virial="-518.0690 3.6657 -5.0803 3.6657 -528.2880 19.2336 -5.0803 19.2336 -493.8790"
Ag     3.54449821     3.35028495     3.50171787     1.43296964    -0.82183998     0.01779783
Ag     6.95086819     3.34849143     3.50962084     1.10862145    -1.09296072     0.10632183
Ag     5.23291891     3.29787342     5.24291056     1.31823206    -0.31922490     0.79928842
Ag     1.87415150     3.26548049     5.26402847    -0.30031550     0.95718499    -0.06999333
Ag     7.01420896     5.06898377     1.70856302     1.05289395    -0.34426968     1.39212655
Ag     0.01479966    -0.12615262     6.99633855     0.29287284     0.07116609     0.31774938
Ag     0.14953942     3.24264993     6.97794881    -0.39108469     0.24945594    -0.08004748
Ag     3.70444704     6.65448996     6.96685279    -0.55987411     0.09026562     1.87575643
Ag     1.89251827     4.98638134     3.52352805    -0.18707363     1.78698551    -0.92230439
Ag     5.28901957     5.06328432     0.04224974     1.27113872     0.33983017    -3.01659150
Ag     3.70466860     6.72266605     3.52747013    -0.82996484    -0.60986286    -1.89236130
Ag     1.86101866     3.40255680     1.76638545    -1.00256033    -1.55470400    -0.45919329
Ag     5.19757967     1.68680639     0.03679601    -0.73008566     0.87557353    -0.07498554
Ag     1.98062775     6.67175175     5.26737981    -0.08845075     0.12364438    -0.71546429
Ag     0.20848544     5.00647335     5.25521613    -1.06092444    -0.98915671     0.60682821
Ag     6.88135436     1.57232398     5.24464236     0.63056525     1.31682879    -0.49462380
Ag     3.61678237     4.99978623     5.24231289    -0.27795851    -0.17588000     0.75960360
Ag     5.32123190     5.04235156     3.50788562     0.04477474     0.12455867     0.25842623
Ag     3.57431938     3.39771523     0.03341257    -0.69868552    -0.78003078    -1.45385057
Ag     5.18795674     1.61278722     3.51973951     0.18957981     0.19256103    -1.69511648
Ag     3.49728537     1.55855306     5.24075913     0.30803267     1.87142021     0.42620869
Ag     0.09175610     1.69182278     1.73906421    -0.77840448     0.06790558     0.65385144
Ag     1.87428522     5.07732385     0.02479461     0.97948726     0.00980167    -1.01743172
Ag     1.68890874    -0.01524219     1.73209880     2.11249045    -0.75709380     0.84760696
Ag     5.16169639    -0.08918119     5.29139259     0.21187761    -1.46160514    -0.53484317
Ag     3.62800077     5.05343129     1.72954711    -1.93277836     2.10990671     1.51463190
Ag     5.40443350     6.72632185     1.72116863    -0.49695215     2.29686961     1.54462039
Ag     3.46654427     1.69599070     1.77567341     0.52424653    -1.54226290    -0.85198807
Ag     1.79534405     1.63146508     3.51721662    -1.76845639    -0.12869051    -0.21161952
Ag     5.28472642     3.40562333     1.76188065     0.30496488    -2.52893440     0.80124828
Ag     1.80779109     1.56919321     6.94379116    -0.71770191    -0.08905096     2.21946856
Ag     0.27808103     6.70321270     3.50001120     0.03874833     0.71123397    -0.65077894
32
Lattice="6.84288 0.00000 0.00000 0.26132 6.79042 0.00000 0.00884 -0.13282 7.00485" Properties=species:S:1:pos:R:3:force:R:3 pbc="T T T" energy=-124988.9669 virial="-520.9030 5.0394 -4.0190 5.0394 -527.6460 17.8048 -4.0190 17.8048 -496.8480"
Ag     3.54088662     3.34693944     3.51069056     1.66244408    -0.66097233    -0.28846359
Ag     6.94772934     3.36050018     3.50144299     1.34155256    -1.77065681     0.54555900
Ag     5.22152099     3.29064853     5.24495265     1.86291189     0.02013549     0.88073027
Ag     1.88364938     3.25732959     5.27385141    -0.49240041     1.26643305    -0.36418273
Ag     7.00459723     5.07278786     1.69521407     1.59506846    -0.54571198     1.81904168
Ag     7.11066625     6.65677899     6.99150033     0.52973093     0.31283662     0.46316461
Ag     0.15904921     3.23745906     6.96704809    -0.60562163     0.22670611    -0.05449039
Ag     3.71064057     6.65819855     6.95661840    -0.51353801    -0.18846635     2.39138929
Ag     1.88745994     4.97922723     3.52473458     0.15708409     2.09793298    -1.17469230
Ag     5.27662086     5.05186794     0.05233334     1.71242077     0.49564506    -4.27502105
Ag     3.71729393     6.72316692     3.53861163    -1.30605756    -0.71254330    -2.55078719
Ag     1.86707339     3.41158904     1.76984992    -1.20002620    -1.77403147    -0.51601704
Ag     5.19945577     1.69051366     0.04834583    -0.87551418     0.76922837     0.00058230
Ag     1.97443515     6.66568596     5.27538479     0.22232364     0.28358060    -1.02647476
Ag     0.22003588     5.00789966     5.24886151    -1.95609373    -1.28027171     0.85753989
Ag     6.87018862     1.55967744     5.24437478     1.08627281     2.08943767    -0.73898597
Ag     3.61451179     5.01165385     5.23627594    -0.24242715    -0.59127548     1.06886871
Ag     5.31397897     5.03317391     3.50322962     0.05511870     0.40872627     0.61539159
Ag     3.57929961     3.39509464     0.04365302    -1.01657865    -0.86699758    -1.87531308
Ag     5.18044589     1.61088389     3.52513543     0.51222649     0.20981901    -2.28832692
Ag     3.49196922     1.55598063     5.24769869     0.49411335     1.91986330     0.17133277
Ag     0.10445805     1.69472694     1.73557538    -1.16066920     0.08982022     0.79215887
Ag     1.86099064     5.07252628     0.03381368     1.54904239     0.08494353    -1.32601052
Ag     1.68680714    -0.00894191     1.72226042     2.60202401    -1.25614565     1.27672223
Ag     5.16766117    -0.07682115     5.29593514     0.23000493    -2.31111799    -0.59024204
Ag     3.63789089     5.04506393     1.71611228    -2.74886454     2.86023496     2.33355220
Ag     5.41434260     6.71489618     1.71239909    -0.97005415     3.17863855     2.11352994
Ag     3.45507715     1.70128051     1.78279050     1.03343252    -1.87824166    -1.00254346
Ag     1.79805331     1.63068848     3.51859756    -2.28310654    -0.30761530     0.00320946
Ag     5.29800814     3.41112706     1.75675506     0.15639044    -3.29231005     1.22523625
Ag     1.81788269     1.56147749     6.93444080    -1.36071776     0.05674106     2.63640320
Ag     0.28122107     6.69200375     3.50462847    -0.07233327     1.05794256    -1.12317161
32
Lattice="6.84288 0.00000 0.00000 0.26132 6.79042 0.00000 0.00884 -0.13282 7.00485" Properties=species:S:1:pos:R:3:force:R:3 pbc="T T T" energy=-124988.1102 virial="-524.0500 6.2353 -2.5045 6.2353 -527.7420 16.5304 -2.5045 16.5304 -500.0660"
Ag     3.53793811     3.34342879     3.51937627     1.80528466    -0.48782076    -0.59044641
Ag     6.94513019     3.37163457     3.49362678     1.52034817    -2.37699054     0.93977154
Ag     5.21101752     3.28357961     5.24726454     2.33020982     0.33610644     0.92918211
Ag     1.89277726     3.24979503     5.28334305    -0.69488148     1.59396179    -0.67403530
Ag     6.99574831     5.07632035     1.68278423     2.13698395    -0.76298455     2.23985321
Ag     7.10269836     6.64955746     6.98692579     0.73927344     0.55319979     0.58880991
Ag     0.16814866     3.23245539     6.95635262    -0.85475317     0.19331502    -0.01985186
Ag     3.45520962    -0.12865411     6.94744163    -0.47364223    -0.45988194     2.85786724