128
Lattice="10.950 0.000 0.000 0.000 10.950 0.000 0.000 0.000 21.850" Properties=species:S:1:pos:R:3:forces:R:3 energy=-687.69195557 virial="-8.01951885 -4.53631592 3.91235733 -4.53631592 -7.90463686 -1.67400682 3.91235733 -1.67400682 -5.29605103"
Si     1.37197261     4.09315610     1.35107302    -0.10108691     0.07573024     0.11106625
Si     5.52796436     8.25701834    10.72228658    -0.20304129    -0.21382886     0.39794365
Si     5.50099107     2.77358686    16.29747857     0.12611988    -0.14615557     0.33416557
Si     5.58868633     2.82275859    10.93688383    -0.57887900    -0.29922295    -0.17036775
Si     0.11303980     8.27232270    16.51449898    -0.15684187    -0.43861842    -0.40747952
Si    -0.08449500     8.12784957    10.96057410     0.57351249     0.37241346     0.07561910
Si     0.00420033     2.73952127    16.38459319    -0.10525855     0.10546798     0.03858722
Si    -0.00908585     2.78439951    10.96597924     0.18723238     0.10705546     0.25483608
Si     6.82882401     6.89320818    20.59569927     0.08784176    -0.41668546    -0.15258631
Si     6.83823643     6.79001470    15.07073867     0.18233533     0.17060851     0.13354415
Si     6.77817068     1.38546959    20.30173566     0.38539439     0.01545481     0.72808534
Si     6.76824916     1.22458096    15.04517671    -0.23037857     0.41655597    -0.56269968
Si     1.31608797     6.81928979    20.48515441     0.11201977     0.30765897    -0.29222476
Si     1.45097038     6.74973838    14.99772342    -0.68802434     0.71173882     0.29720363
Si     1.38058570     4.05979396    17.80662749    -0.02539231     0.20437750    -0.27094179
Si     1.50393903     1.38298837    20.61175411    -0.79386401    -0.04352190    -0.60617304
Si     5.51459754     5.51225193    19.17917170     0.29602808    -0.35267413    -0.00669396
Si     5.45466255     5.54197546    13.63413784     0.28722101    -0.39296868    -0.03412624
Si     5.40915633    10.90034486    19.06694244     0.55723119    -0.00430945    -0.04191072
Si     5.23874276    10.86529209    13.62519018     1.29352677     0.08821109     0.29941255
Si    -0.02146754     5.45952917    19.12028437     0.00209241    -0.56689250     0.56125295
Si    -0.11784419     5.53055308    13.66044902     0.27549487    -0.24238354     0.02197193
Si    -0.08261548    11.07463533    19.15081156     0.75581861    -0.68090355     0.71020246
Si     0.00695353    10.93635968    13.78953272    -0.05758952    -0.08206236    -0.41861835
Si     6.80339416     9.35037496    17.92332230     0.68098950     1.77195561    -0.45314246
Si     6.73689860     9.55162067    12.24855440     0.20888628     0.40140212     0.14585970
Si     6.86927620     4.10346953    17.77102886    -0.21351972     0.17502181    -0.09703545
Si     6.91358796     4.19180767    12.25422887    -0.31300718    -0.10314634     0.35594860
Si     1.40938278     9.64469812    17.94333436    -0.00794110     0.02587709    -0.63089073
Si     1.40048361     1.44554541    15.03309574    -0.10602446    -0.28290159    -0.12165274
Si     1.33437892     9.56521188    12.31398520    -0.01463865    -0.03164822     0.02556801
Si     5.56700529     8.24754147    16.42634168    -0.94726408    -1.00027752    -0.27927151
Si     8.30330066     5.43433616    16.47520777    -0.31376147     0.37243721    -0.34581965
Si     8.27702268     2.79937427    19.09620654    -0.36638892    -0.55838835     0.00491166
Si     8.10058847     2.59169508    13.62563846     0.43068463     0.55594432     0.09442970
Si     2.80854778     8.11494988    19.14023641    -0.37483776     0.65277338     0.44069394
Si     2.72822688     8.18325987    13.59721219     0.21302545    -0.01414652     0.38498247
Si     2.79216257     2.70745576    19.12342032     0.12314745    -0.00981277    -0.04571783
Si     2.67828925     2.80982559    13.57772207     0.28968585    -0.06968461     0.23776001
Si     9.64929946     6.89460127    17.84924569    -0.35778672    -0.07256819    -0.32684177
Si     9.42307436     6.86488827    12.28247269     0.10471828     0.19125175     0.35232055
Si     9.57046074     1.36103181    17.71977695    -0.11031467     0.38473636     0.02452747
Si     9.62077921     1.32688975    12.30515931    -0.26284254    -0.02091930     0.10660484
Si     4.18667464     6.80467032    17.84618641    -0.22162062     0.19176576    -0.98812723
Si     4.22532398     6.94250165    12.21584318    -0.53739929    -0.15288582    -0.15219547
Si     4.20996559     1.33895345    17.64125677    -0.53421670     0.49242863     0.52456939
Si     4.09285166     4.17903151    20.46347638    -0.19109467    -0.19012687     0.29128242
Si     4.08658359     4.09534702    14.96183820     0.07546678     0.31511274     0.06860936
Si     8.12366671     5.57823807    10.79788254     0.38226271    -0.43664348     0.18062057
Si     8.19072266    10.96136038    16.39140963    -0.37477389    -0.68110251     0.89568663
Si     8.20276861    10.90079766    10.91752774    -0.12544759     0.39608571     0.42775029
Si     2.76633259     5.44355777    16.41425319     0.14888366    -0.09000079     0.18483965
Si     2.77758509     5.60067198    10.83125549     0.27065516    -0.29891086     0.41685298
Si     2.72925532    11.00516379    16.41785393    -0.12631577    -0.48979968    -0.03861097
Si     2.88643961    10.87843739    11.04081367    -0.40125754     0.19035010    -0.32444233
Si     9.52947928     9.59458114    20.57349182     0.56240070     0.37162507    -0.29227418
Si     9.55343920     9.56990718    15.18022950     0.31899220    -0.11991468    -0.64745283
Si     9.53578766     4.00898454    20.62843914     0.39309755     0.74230832    -0.63639766
Si     9.50087844     4.02920655    14.99128837     0.27419090     0.15329391     0.00362095
Si     4.17698155     9.57646614    20.49886124    -0.53181618    -0.25124097    -0.08156513
Si     4.05601046     9.51983517    15.10065193    -0.25033566     0.05649961    -0.13332205
Si     4.17588547     1.46908103    12.32623316    -0.48796037    -0.00715968    -0.41582507
Si     1.42337945     4.32398376    12.27455781    -0.64959687    -0.67314881    -0.10840599
Si     8.23737376     8.23802454     8.15021761    -0.00891750     0.12482984     0.07686011
Si     8.33229761     8.07981211     2.73204142    -0.42560703     0.66359413    -0.20932120
Si     0.00923715     8.25256409     5.48967350    -0.18821651    -0.02782547     0.26145482
Si     0.00128004     8.18716268    -0.00516057    -0.04728427     0.17778048     0.17028578
Si     0.05145330     2.64876711     5.41580687    -0.18357441     0.02041649    -0.01833798
Si    -0.02669474     2.67500599     0.08759867     0.21190144    -0.10536264    -0.10061610
Si     6.77831479     6.83833993     9.33718590     0.15006484    -0.10384603     0.33410680
Si     6.92431713     6.85140056     4.09333621    -0.40164155    -0.36067075     0.05776981
Si     6.90847825     1.42398652     9.57489987    -0.09897700    -0.17289129    -0.41127536
Si     6.79310270     1.35796381     4.15429085     0.05994088    -0.18307497    -0.47220546
Si     1.35921366     6.86136766     9.52306243     0.06521475     0.49462193    -0.09928057
Si     1.35356932     7.00591361     4.07298339     0.24454583    -0.67000806     0.02013119
Si     1.39054359     1.27111286     9.80016342     0.11561441     0.68872714    -0.83548743
Si     1.36762644     1.31941065     3.96507547     0.10917671     0.26937592     0.31238279
Si     5.37341438     2.74719237     5.40111322     0.38914931     0.42991543     0.26259956
Si     5.45057592     5.32014478     8.04786430    -0.10607188     0.60484213     0.41294479
Si     5.44593884    11.10847087     8.12000078     0.16171503    -0.10178879     0.09756199
Si     5.51035265    10.81193268     2.73068598     0.38197988     0.72037101     0.09340409
Si     0.04859432     5.44428366     8.21891022    -0.22657308    -0.02582841    -0.32380787
Si     0.07758438     5.45150092     2.81307560    -0.11246420     0.05657698    -0.46174079
Si     0.08139730    10.98733884     8.28163324    -0.66472423    -0.09493132     0.11928447
Si    -0.08306340    10.88434868     2.76168292     0.26317537     0.04323854    -0.40450627
Si     6.69956990     9.54668331     6.84430212     0.55687785     0.15085877    -0.21117696
Si     6.92474483     9.52430687     1.32877617    -0.02252357     0.01105093     0.56318319
Si     6.96033534     4.06370635     6.78863648    -0.65542597    -0.20376915    -0.46210644
Si     6.84907800     4.09814758     1.38620390    -0.12034180    -0.15533222    -0.07510804
Si     1.31961824     9.65019868     6.88883070     0.39518362     0.03654732    -0.75830781
Si     1.36580593     9.59001027     1.34848709    -0.31117839     0.10324797    -0.09395646
Si     1.34450141     4.06806143     6.76921245     0.13717875     0.30750060     0.14852121
Si     5.50701865     5.53757829     2.68351630    -0.10155508    -0.08562063     0.17637455
Si     5.46962357     8.25925103     0.06425222    -0.01383291    -0.30649704    -0.18044537
Si     5.48930532     2.76142711    -0.08969318     0.12914273    -0.00494353     0.29567087
Si     5.42246909     8.13217699     5.41739601     0.04656300     0.38217598     0.10595755
Si     8.31500960     2.69823377     8.09631392    -0.21179293    -0.03857059     0.48954913
Si     8.28891895     5.44320963     5.43612111     0.01758293    -0.03315450    -0.07899400
Si     8.20784802     2.72637665     2.78485487    -0.27137917    -0.27448696    -0.27631035
Si     2.74094881     8.31631833     8.10577056    -0.02671190    -0.60977310     0.53488052
Si     2.74010000     8.28500683     2.64570463     0.05254711    -0.10042004     0.62686324
Si     2.63497793     2.76985118     8.26186492    -0.06118223    -0.37807369     0.07203943
Si     2.76758238     2.72915063     2.63500235     0.18841875    -0.09949724     0.26955402
Si     9.61822784     6.80225040     6.85150489     0.00875437     0.23212832    -0.17921498
Si     9.66102516     6.74008880     1.36190201     0.03559904     0.21565761     0.14439628
Si     9.60670059     1.26103188     6.75360045     0.18553704     0.20473287     0.36046875
Si     9.48850135     1.28235881     1.39317810     0.25624308     0.38022965     0.03836906
Si     4.03546763     6.80766337     6.81230613     0.33999389     0.10068783    -0.14416820
Si     4.06442991     6.88086215     1.34531700     0.18451287    -0.11486696     0.04261815
Si     3.95462628     1.50067138     6.80310766     0.56516361    -0.33261353     0.07766179
Si     4.29831591     1.35614592     1.39744560    -0.83199549    -0.05322272    -0.41185758
Si     8.18658917     5.47850625     0.06658359     0.19727734    -0.22774303    -0.15486899
Si     4.07536276     4.19684697     3.99790248     0.06816134    -0.33290991     0.19299267
Si     8.13314247    10.88309096     5.46273585     0.08175208    -0.00305871     0.16436958
Si     8.12944238    10.97858218    -0.04523161    -0.02150524     0.05684577    -0.00458250
Si     2.70570318     5.54041712     5.39074968    -0.24519248    -0.30813038     0.06523585
Si     2.62723446     5.55990939     0.00994195     0.78105783    -0.65541160    -0.02047445
Si     2.73080876    11.02061096     5.41370936    -0.39362144    -0.27552098     0.31376284
Si     2.82722909    10.88903158     0.03831069     0.06363613     0.43354428     0.16146323
Si     9.62416459     9.59404993     9.66854875    -0.22643070    -0.19269511    -0.95183843
Si     9.54605077     9.53261848     4.13257341     0.00542920     0.02529100    -0.04124812
Si     9.56600079     4.11339027     9.53650996     0.08946132    -0.04070753     0.07135250
Si     9.65789058     4.01472998     4.04759967    -0.18202856     0.39243704     0.47972444
Si     4.18673358     9.64751093     9.41146453    -0.48991400     0.04696145     0.51948857
Si     4.06952994     9.64283771     4.09848199     0.12889107    -0.67269635    -0.03036706
Si     4.07112503     4.07018401     9.55063109     0.35709685     0.30333966     0.01978317
Si     8.06558762     8.30878385    13.74502850     0.66549814    -0.49772435    -0.24766968
Si     8.24105449     8.19917449    19.29551636     0.12218869    -0.41534758    -0.54230946
128
Lattice="10.895 0.000 0.000 0.000 10.770 0.000 0.000 0.000 22.462" Properties=species:S:1:pos:R:3:forces:R:3 energy=-680.03955078 virial="2.81752419 14.12693596 -3.28040075 14.12693596 15.56276512 3.54893303 -3.28040075 3.54893303 -29.99785614"
Si     1.38854070     3.90573723     1.45310722     0.50865710     0.41942644    -0.39364392
Si     5.46983426     8.13807474    10.97151990    -0.13205360     0.22763374     0.61923862
Si     5.49997025     2.75708801    16.79568908    -0.82771909    -0.13072115    -0.05183195
Si     5.40927765     2.73155143    11.09950754     0.48804736    -0.05839859     0.35475284
Si    -0.02891669     8.05399992    17.07911061     0.59872258     0.26482689    -0.73523122
Si     0.05681145     8.22585315    11.40020368    -1.20272994    -1.00689459    -1.34222758
Si    -0.07514843     2.78044068    16.84646854     0.31412563    -0.91703510    -0.12368324
Si    -0.04234211     2.78470432    11.41507289    -0.68675268    -0.87504303    -0.68961811
Si     6.90608865     6.53977715    21.19292139     0.12537904     0.48812783    -0.11460470
Si     6.86207719     6.75177450    15.54425676    -0.47817791     0.04425280    -0.74127007
Si     6.85299988     1.38449644    21.10795648    -0.89981914    -0.10361291    -0.36070809
Si     6.68885442     1.34413022    15.31866141     1.32699513     0.13676775     1.39186239
Si     1.37630134     6.80250307    21.03005489    -0.14476761    -1.05530751     1.12883139
Si     1.24893960     6.73087113    15.53183756     0.54340905    -0.28502038     0.19704233
Si     1.41456928     3.96425478    18.23701092    -0.19795404     0.09443181     0.07949887
Si     1.38349713     1.47136556    21.09486213     1.39374375    -0.04885227     1.00664735
Si     5.59569432     5.28734813    19.67705396    -1.34203053     0.56462991     0.15662098
Si     5.57088879     5.45758858    13.95921457    -0.58417904     0.79054213     0.06867912
Si     5.49128780    10.82822145    19.67841685    -0.66695857    -0.29884470     0.17594618
Si     5.46267895    10.68439935    14.09809392    -1.60162687     0.06456431    -0.73863769
Si     0.12379198     5.17658712    19.77980179    -0.23617575     1.21235585    -0.70434833
Si    -0.12785801     5.43593703    14.10041516     0.00184196     0.57533985    -0.15793541
Si     0.21491618    10.80712437    19.96972078    -1.35210705    -0.47685772    -2.61960220
Si    -0.10198644    10.67773261    14.02486200     0.69371933     0.55242318     0.49632496
Si     6.83765416     9.36529716    18.39928221    -0.16347432    -0.84196711    -0.46581006
Si     6.78513897     9.46230493    12.60201806    -0.09938230    -0.62530792     0.11538491
Si     6.82148197     4.09981376    18.17135069     0.40917736    -0.54424793     0.12737890
Si     6.79478793     4.06130491    12.64658867     0.25180304    -0.20240471    -1.10390687
Si     1.47239858     9.49844797    18.27456442    -1.55541086    -0.82915169     1.34007967
Si     1.29399558     1.32001311    15.38720547     0.42770177     0.41910821     0.37471282
Si     1.38938581     9.40770940    12.79910142     0.51647925     0.20451152    -0.19311593
Si     5.23597185     7.79854342    16.84199824     1.43458009     2.22215414    -0.06939863
Si     8.20461013     5.48486283    16.86350549     0.03347155    -1.16664732    -0.26653439
Si     8.02625322     2.60185667    19.58783149     1.08826435     1.14386916     0.36572421
Si     8.14290145     2.77149828    14.03546524    -0.69825220    -0.72624993    -0.01012861
Si     2.66897213     8.17627367    19.78696510     0.50192618    -0.92516387    -1.45680213
Si     2.79884639     7.94430753    14.16788763    -1.17577529     0.00413516    -1.06154394
Si     2.75084772     2.72876617    19.69951579    -0.55941582     0.18575659     0.14418913
Si     2.71762895     2.95106830    13.99831561    -0.44015658    -0.94168389    -0.02193861
Si     9.56609863     6.59758689    18.28253829     0.74421787    -0.10416679     0.90981102
Si     9.35541705     6.82762024    12.76517850     1.19771481    -0.68272913    -1.45685256
Si     9.54895020     1.40006546    18.34535424     0.54493940    -0.73729616    -0.07340210
Si     9.40736723     1.28163139    12.79732063     0.73927796     0.80736488    -0.66783476
Si     3.96868184     6.62488946    18.19991836     0.24516803    -0.03947686     2.39626503
Si     4.09245266     6.85404863    12.48913210     0.91608453    -0.09157493     0.76708496
Si     3.99351645     1.50808904    18.31262558     1.18673706    -1.40831876    -1.02865839
Si     4.10031529     3.93021610    21.10217759     0.93892616     0.55483830    -0.70561361
Si     4.18203739     4.23824538    15.36985733    -0.18883814    -0.96555567     0.13748489
Si     8.19086367     5.35028258    11.10184360    -0.24609436     0.46642452     0.38668644
Si     8.18092562    10.73908451    17.00797075    -0.00122997    -0.02707513    -1.05183840
Si     8.08057124    10.91298300    11.35192034     0.13574080    -0.95209926    -1.45651484
Si     2.76083621     5.29508241    16.87101275    -0.94272554     0.25658309    -0.68082941
Si     2.85039368     5.48614093    11.18947457    -1.53202486    -0.23138034    -0.38672012
Si     2.69572483    10.66589480    16.90784457     0.45937645     2.08809328    -0.80012584
Si     2.59117764    10.82300666    11.25318560     0.38558763    -0.11565146     0.29010278
Si     9.66209509     9.54321176    21.17572718    -1.31814909    -0.80565381    -0.12357022
Si     9.67741761     9.27854137    15.44210074    -0.89877564     0.75932395     1.21404588
Si     9.63527586     3.96283464    21.13230328    -0.80405283    -0.82999682    -0.04956473
Si     9.48940943     4.01050348    15.36186214    -0.03961354     0.58583391     1.09599018
Si     4.04275714     9.34632304    21.11870278     1.24447227     0.82582575     0.21458808
Si     3.90383691     9.31032577    15.52070032     1.86574900     0.58551943     0.10496235
Si     3.97087518     1.45169432    12.54483510     0.67199379    -0.26737967     0.77534139
Si     1.13787702     4.22077233    12.63890306     1.98319614     0.31476626     0.18069783
Si     8.05118177     8.12241923     8.24023653     0.86136281    -0.83125651     0.21491891
Si     8.18602789     8.02830438     2.77887882     0.66980326    -1.11253703     1.34561849
Si    -0.04311791     8.11049468     5.75197812     0.96448183     0.24969609    -1.76938891
Si    -0.03085004     8.13427514     0.07618095     0.31732947    -0.90507132    -0.52302778
Si     0.08160324     2.47200766     5.56221674    -0.17919818     0.90284741     0.32928279
Si     0.01257328     2.52885398     0.10573988    -0.10008936     1.13672793    -0.21196774
Si     6.79741849     6.66253363     9.54962962     0.00593945     0.29226890     0.96676707
Si     6.75517808     6.57081896     4.22371378     0.89837438     0.99595559     0.02256376
Si     6.88909169     1.37987396     9.64720754    -0.56627309     0.09274732     1.32323599
Si     6.82673873     1.27442143     4.19146965    -0.03247684     0.93172193     1.61595821
Si     1.38855725     6.90008117     9.72329003    -0.32347053    -0.79747868     0.71583092
Si     1.40168460     6.69496320     4.19680253    -1.15233803     0.74363118     0.13147663
Si     1.37145829     1.55494554     9.98616462    -1.23491788    -1.27581155    -0.01511358
Si     1.40567718     1.37911789     4.00641238    -0.20694438    -0.73279893     0.21424067
Si     5.28516629     2.82619708     5.42806779     0.72131264    -1.34043002     0.26614338
Si     5.37876367     5.42394069     8.20953841     0.57208931    -0.68315828    -0.21401015
Si     5.48616430    10.96615176     8.25648776    -0.60413831    -0.77144760     0.45115006
Si     5.63447298    10.86644941     2.80734376    -2.11468601    -1.41055608    -0.59556818
Si     0.00551492     5.38643425     8.27176994     0.39027378     0.23447961     1.22324991
Si     0.07333924     5.35836420     2.78777768     0.16333006    -0.60811770     0.57174623
Si    -0.09063457    10.74447384     8.60816488     1.53169763     0.37410969    -0.57271600
Si    -0.05411565    10.73684466     2.66988260    -0.10235795     0.15853557     1.13334918
Si     6.79885196     9.49353327     6.94877606    -1.10914826    -0.41073680     0.39040178
Si     6.89945463     9.35865374     1.61958319    -0.97259378     0.60008562    -2.10595036
Si     6.76409277     3.89793529     6.77715282     0.84330904     0.97937524     1.22875142
Si     6.73322734     3.91970552     1.44727106     0.80112278     1.06208062     0.53206784
Si     1.33706159     9.53873494     6.93573937    -0.03114730    -0.34728622     1.29756653
Si     1.28666995     9.48881272     1.30728769     1.11573315    -0.27447599     0.77615875
Si     1.32502911     4.04409136     6.95436978    -0.18875335    -1.01189208     0.27620894
Si     5.42996286     5.38502365     2.79452976     0.07683381    -0.35596693    -0.19674300
Si     5.48186089     7.99188415     0.05388016     0.35362452     0.37999243     0.04003360
Si     5.52580004     2.74996731     0.02197743    -0.56730485    -0.92041922    -0.71663427
Si     5.51037882     8.06092221     5.61740810    -0.30010420    -0.14666086    -0.45948267
Si     8.28911073     2.63108107     8.40169236    -0.13530724     0.70426631    -0.85322148
Si     8.30170775     5.36009409     5.55999076    -0.61816913    -0.45769739     0.02907658
Si     8.02582629     2.56110919     2.78664855     1.29185987     1.00328410     0.44077051
Si     2.81939551     8.08998483     8.35757325    -0.48015428     0.79981589    -0.41669345
Si     2.66709767     8.12158629     2.90859605     0.08097807    -0.23455113    -1.30442059
Si     2.60013041     2.70495293     8.52093543     1.10589719     1.02878106    -0.97120959
Si     2.93361331     2.59381561     2.73524450    -1.10065818     0.49676877     0.01542965
Si     9.63079103     6.72335414     6.93731730    -1.52411723    -0.17728163     0.70682800
Si     9.66693552     6.68155895     1.48990944    -0.86128807     0.19538996    -0.49369800
Si     9.64648676     1.20034058     7.07975738    -0.68367916     0.45682395    -0.60708195
Si     9.45705892     1.36442388     1.42739284    -0.19109315    -0.62672353    -0.18062100
Si     4.04049920     6.72048513     6.83674838    -0.34066153     0.00874526     0.30467808
Si     4.11231663     6.73378582     1.47591795    -0.57192957     0.05565046    -0.30627003
Si     4.05426913     1.52234218     6.97660271    -0.55937564    -0.36968583    -0.20568901
Si     4.14617780     1.34291358     1.26706841     0.99734890    -0.18204492     0.96107799
Si     8.29199769     5.19121004     0.16643562    -0.21867526     0.61183870    -0.32404500
Si     3.99934056     4.11928706     4.10286705    -0.06356102    -0.03231737    -0.03861126
Si     8.11345303    10.70173498     5.67258194     1.10066342     0.92785501    -0.86924899
Si     8.04761949    10.82447876     0.00749895     1.09098423    -0.93544781     0.63431442
Si     2.54405205     5.28609225     5.51397038     1.32640433     0.48735359     0.38928625
Si     2.88916845     5.25768438    -0.02039213    -1.47102630     1.15231109     0.66423273
Si     2.62404338    10.86264821     5.56331549     1.11098051    -0.18432833    -0.31281480
Si     2.80130180    10.80378044     0.03908686    -0.81177104    -0.38766098    -0.74188995
Si     9.35993098     9.37887288     9.65794517     0.31755102     0.22890708     2.19945955
Si     9.47713738     9.36524255     4.26134753     0.33577299     0.23084170    -0.36007124
Si     9.65148026     3.99868505     9.79129665    -0.45577794     0.31679171    -0.02446355
Si     9.64222589     3.93935050     4.24957648    -0.51678008    -0.17252041    -0.69712883
Si     3.98144355     9.64295271     9.76432245     0.81121540    -0.54517698    -0.40712315
Si     4.11022899     9.30768626     4.20011722     0.27658361     1.57720256     0.28213176
Si     4.15743433     4.17376406     9.74101547    -0.68255019    -0.54869795    -0.03435500
Si     8.18523445     8.11620451    14.15454707    -1.10438311     0.49736711    -0.13926563
Si     8.35909591     7.86321755    19.77581338    -0.85675943     1.33432317     0.26258972
128
Lattice="10.929 0.000 0.000 0.000 10.878 0.000 0.000 0.000 22.033" Properties=species:S:1:pos:R:3:forces:R:3 energy=-687.22186279 virial="-0.52717102 -4.12275171 1.79629493 -4.12275171 5.13100672 -1.32115316 1.79629493 -1.32115316 -10.66728497"
Si     1.48019031     4.04940578     1.35469701    -0.73448229    -0.09680495     0.30928844
Si     5.42772131     8.26123556    10.97758421     0.00339879    -0.41497898    -0.18354513
Si     5.38079086     2.74306066    16.52519977     0.59701300    -0.08657651    -0.06082144
Si     5.36555706     2.71748980    10.93056198    -0.02617630     0.30996603     0.13106352
Si    -0.06529631     8.11928052    16.65672650     0.15780978    -0.07929544    -0.49830821
Si    -0.07220607     8.22547674    10.93399777     0.84987766     0.08422035     0.79642594
Si    -0.01994877     2.60794012    16.52615188    -0.19744837     0.80992818     0.12270404
Si    -0.14605061     2.74058220    11.08835720     0.78204072     0.59448397    -0.16241027
Si     6.94310671     6.63598242    20.71215175    -0.28612334     0.43201375    -0.16966727
Si     6.78254927     6.88339094    15.10711331     0.37740660    -0.22728626     0.56556499
Si     6.85152444     1.29521248    20.73213318     0.49831545    -0.02778496    -0.19424093
Si     6.90314164     1.42080072    15.24739636    -0.75166106    -0.26792955    -0.62448800
Si     1.45843720     6.68374848    20.80654208    -0.41729683     0.80796421    -0.90476400
Si     1.32488820     6.77705310    15.21464440    -0.24896455     0.67672288    -0.06485923
Si     1.33031549     4.03633033    17.84953810     0.32025698    -0.00827463     0.16142663
Si     1.46551435     1.42389214    20.73877535    -0.86576641    -0.32108065    -0.76829970
Si     5.46510644     5.41857220    19.28430132     0.72351396    -0.25630674     0.12164948
Si     5.51698028     5.57622316    13.66100284    -0.11539505    -0.91116238     0.25465420
Si     5.48336092    10.86401965    19.32726148     0.23424029    -0.01815888    -0.30537277
Si     5.38725728    10.93369697    13.73364729     0.90110910    -0.07612526     0.42083049
Si     0.13735518     5.38528598    19.35116406    -0.46323326    -0.48370463     0.26430136
Si    -0.04160781     5.57203207    13.80655087     0.04781968    -0.70033801    -0.20218979
Si     0.00998137    10.84984189    19.24568857     0.45745206    -0.20537958     1.44767594
Si     0.00805742    10.90407372    13.83131523    -0.39207202    -0.12736517    -0.35901940
Si     6.79051852     9.41127203    17.95753060     0.73966587     1.00659990     0.10899118
Si     6.79550580     9.51857321    12.36684489    -0.02706001     0.59151721     0.12463824
Si     6.83652653     4.03558091    17.86117474    -0.13524342     0.11677366     0.33546251
Si     6.79139774     4.07402915    12.21908989    -0.00870475     0.22833467     0.91292274
Si     1.31030445     9.48344664    17.93143314     0.89125109     0.23764423    -0.25668144
Si     1.35684435     1.42765631    15.12211112     0.00806966    -0.33902711     0.05826640
Si     1.38793149     9.52671771    12.42968134    -0.40921259     0.00955984    -0.15302585
Si     5.44213036     8.18475245    16.63452136    -0.50082463    -0.82713532    -0.46792978
Si     8.18929336     5.40561813    16.51988632    -0.31154609     0.76932764     0.39639223
Si     8.22605303     2.70127261    19.29434608    -0.39483759    -0.60681826    -0.16474018
Si     8.12658568     2.82480705    13.80000436     0.24954510    -0.08415889    -0.11076193
Si     2.74124061     8.11923372    19.31196200    -0.31264937     0.56647682     0.81030232
Si     2.69730894     8.06953547    13.83532424     0.43279207     0.81421649    -0.20273513
Si     2.73747852     2.77656344    19.28955813     0.42316699    -0.40456319    -0.16758707
Si     2.69336014     2.75584967    13.79915175     0.37930834     0.35256761    -0.18150049
Si     9.65156591     6.62194929    18.03526916    -0.83288491     0.84645617    -0.42913920
Si     9.63080367     6.83225750    12.26345755    -0.77059221     0.14417747     0.97756612
Si     9.63864163     1.27451480    17.98382153    -0.80049497     0.66722596    -0.55991179
Si     9.46532248     1.41830658    12.42711193    -0.02231904    -0.53202951     0.16134959
Si     4.00546335     6.70939178    18.10033334     0.44325626     0.22880998    -1.70439649
Si     4.12982465     6.85144678    12.35691196    -0.69748610     0.07922626    -0.27863315
Si     4.14133301     1.31944765    17.89944092    -0.34815472     0.49199715     0.38654053
Si     4.22129075     4.06172148    20.64765815    -0.67988890    -0.17706580     0.48574793
Si     4.15140643     4.14203308    15.08305019    -0.33217233     0.14999196     0.06998485
Si     8.23152104     5.44687490    11.00744393    -0.18004942     0.08224990    -0.39822105
Si     8.26655005    10.88048837    16.55011223    -0.82645339    -0.03037530     0.67276770
Si     8.12119941    10.90121915    10.93044855    -0.23840350     0.52583838     0.98897791
Si     2.65676159     5.43967884    16.47134119     0.82880896    -0.34114006     0.66642177
Si     2.62322468     5.50442614    10.96107575     0.86606133    -0.04596161     0.31185830
Si     2.73806820    11.01676418    16.48030045    -0.10678447    -1.23783934     0.31811574
Si     2.60639382    11.00605290    10.99753955     0.33523804    -0.35669935     0.00617147
Si     9.53105984     9.44092967    20.69863983     0.79636037     0.20920527    -0.08688843
Si     9.53353812     9.54620231    15.24303218     0.43527892    -0.49241233    -0.67506313
Si     9.57350690     3.93959978    20.64897836     0.47777563     0.91963339     0.12666231