12
Lattice="3.47766 0.00000 0.00000 -0.03055 3.45933 0.00000 -0.08274 0.30734 9.21308" Properties=species:S:1:pos:R:3:force:R:3 pbc="T T T" energy=-46822.10548 virial="-368.6830 -2.8508 -9.3687 -2.8508 -324.3680 19.5327 -9.3687 19.5327 -308.8810"
Ag    -0.03754291     2.01312196     8.58569711    -6.48485890     7.26054913   -20.49257998
Ag     1.65837133     2.06535582     7.04969258     0.31580001    -3.17670196    -9.56423319
Ag    -0.03054191     1.80622901     5.29951797    -1.46450324     2.25283677    -1.82070092
Ag     3.33690317     3.64219877     6.93044961     1.16413543     0.63810420    -5.28381317
Ag     1.63749354     0.27980181     5.27744189     3.31294519    -0.99330026    -1.24584208
Ag     1.60574445     3.72750045     8.48829320    -5.77140786    11.15534421   -14.29886181
Ag    -0.02362872     1.77454168     1.77428445     0.31156938    -1.00696711     7.00063356
Ag     3.40465313     0.04439934     0.19489339     6.51494813    -9.28849535    17.72709950
Ag     1.64778863     3.46540672     1.77226120     1.27636475     2.90147075     5.25404834
Ag     1.74732343     1.76154843     0.15763655     4.44621130    -8.63643909    21.93301323
Ag     0.03222552     3.50163335     3.59992596    -2.87265157     1.09734251    -0.70146593
Ag     1.77184797     1.92248534     3.45609819    -0.74878635    -2.20376572     1.49261744
12
Lattice="3.47766 0.00000 0.00000 -0.03055 3.45933 0.00000 -0.08274 0.30734 9.21308" Properties=species:S:1:pos:R:3:force:R:3 pbc="T T T" energy=-46822.19228 virial="-369.7680 -2.4536 -9.0755 -2.4536 -322.8160 18.5521 -9.0755 18.5521 -309.2000"
Ag    -0.04328609     2.01192152     8.59065636    -7.54827948     8.22019292   -21.01645350
Ag     1.65457111     2.07707805     7.04014969     0.38709856    -3.69444863    -9.34116011
Ag    -0.04277595     1.80002170     5.30058118    -1.33718632     2.23042927    -1.29673097
Ag     3.34662584     3.63362627     6.93907354     0.37889900     0.91943207    -5.76696742
Ag     1.62803253     0.28355827     5.26312211     4.06994102    -0.92213379    -0.42050047
Ag     1.59642322     3.72220929     8.48078974    -3.11128215    10.02893990   -13.13889589
Ag    -0.01395527     1.76901509     1.76485958    -0.30098758    -0.89712384     7.69114985
Ag     3.41245380     0.04613354     0.18671029     3.91406640   -10.19581620    18.08177504
Ag     1.64338361     3.45756803     1.77496599     1.85605275     2.99412230     5.38066748
Ag     1.73506038     1.74852903     0.17322198     5.92145173    -7.29412365    20.36147554
Ag     0.04456401     3.50273134     3.61194074    -3.54739490     1.00406474    -1.55645354
Ag     1.77843562     1.93218500     3.46014494    -0.68294682    -2.39373754     1.02218426
12
Lattice="3.47766 0.00000 0.00000 -0.03055 3.45933 0.00000 -0.08274 0.30734 9.21308" Properties=species:S:1:pos:R:3:force:R:3 pbc="T T T" energy=-46822.80405 virial="-369.3070 -1.8429 -8.2463 -1.8429 -320.0580 16.4148 -8.2463 16.4148 -309.1890"
Ag    -0.05168425     2.01366045     8.58808841    -7.67589348     7.86098760   -20.06493128
Ag     1.65093343     2.08740716     7.02733689     0.44980156    -4.09995959    -9.00517093
Ag    -0.05540804     1.79464985     5.30117509    -1.13418692     2.20404769    -0.82821887
Ag     3.35642097     3.62543693     6.94558517    -0.47329629     1.24769003    -6.23074628
Ag     1.62008397     0.28696165     5.24874465     4.73304981    -0.84059227     0.36721472
Ag     1.58605247     3.72052891     8.46864884    -0.12383144     8.14234122   -11.51430029
Ag    -0.00445151     1.76320418     1.75823840    -0.89908710    -0.82021228     8.31710430
Ag     3.42160009     0.04422036     0.18502855     1.15913109    -9.81586069    17.48463684
Ag     1.63966891     3.45084767     1.77957229     2.38910686     3.02963912     5.52742767
Ag     1.72498817     1.73299220     0.19596862     6.42558246    -5.23222416    17.72965828
Ag     0.05555784     3.50418034     3.62332299    -4.21635935     0.90009725    -2.37771326
Ag     1.78473725     1.94096845     3.46453015    -0.63471691    -2.57715877     0.59701048
12
Lattice="3.47766 0.00000 0.00000 -0.03055 3.45933 0.00000 -0.08274 0.30734 9.21308" Properties=species:S:1:pos:R:3:force:R:3 pbc="T T T" energy=-46823.76816 virial="-367.8560 -1.2354 -7.0571 -1.2354 -316.1680 13.4688 -7.0571 13.4688 -309.1150"
Ag    -0.06265492     2.01815599     8.57845098    -6.89441007     6.16634459   -17.83628476
Ag     1.64751997     2.09609862     7.01155877     0.48570176    -4.40652025    -8.60868631
Ag     3.40944704     1.79015515     5.30146473    -0.85068942     2.16901204    -0.43850310
Ag     3.36587400     3.61783573     6.94977148    -1.35724339     1.63168054    -6.66538342
Ag     1.61395521     0.29000639     5.23475321     5.28099247    -0.74689046     1.08297538
Ag     1.57582232     3.72176577     8.45264089     2.72314687     6.02758210    -9.83690810
Ag     0.00456434     1.75720580     1.75468432    -1.47452107    -0.77336096     8.83476643
Ag     3.43099469     0.03886044     0.18957690    -1.33021444    -8.24844021    16.06183172
Ag     1.63686750     3.44532121     1.78605670     2.86027925     3.00145796     5.68943898
Ag     1.71737373     1.71587641     0.22459761     6.02459279    -2.85725913    14.60680413
Ag     0.06486093     3.50592275     3.63365957    -4.85157514     0.78354769    -3.12482787
Ag     1.79070169     1.94868175     3.46904905    -0.61648891    -2.74902074     0.23653518
12
Lattice="3.47766 0.00000 0.00000 -0.03055 3.45933 0.00000 -0.08274 0.30734 9.21308" Properties=species:S:1:pos:R:3:force:R:3 pbc="T T T" energy=-46824.87532 virial="-365.7790 -0.8443 -5.7459 -0.8443 -311.5160 10.2575 -5.7459 10.2575 -309.2180"
Ag    -0.07569724     2.02467654     8.56284722    -5.45451034     3.54281564   -14.86612580
Ag     1.64438799     2.10295761     6.99326121     0.47724256    -4.61551254    -8.18665455
Ag     3.39675278     1.78656944     5.30159065    -0.49023821     2.12013257    -0.14327631
Ag     3.37454324     3.61105496     6.95147606    -2.21838563     2.05771488    -7.04914230
Ag     1.60988377     0.29268966     5.22159594     5.68394318    -0.64396821     1.68074420
Ag     1.56688191     3.72508428     8.43368862     5.03466986     4.11507290    -8.39498681
Ag     0.01276928     1.75112940     1.75435513    -2.01267424    -0.74397469     9.21188857
Ag     3.43961691     0.03077062     0.19963174    -3.25731044    -5.93011937    14.09913765
Ag     1.63516359     3.44103018     1.79433386     3.25166712     2.90050432     5.85055984
Ag     1.71212644     1.69830898     0.25744133     5.03433119    -0.56111421    11.59879081
Ag     0.07215509     3.50788455     3.64256158    -5.40883622     0.65520051    -3.74812811
Ag     1.79625603     1.95517768     3.47350491    -0.63951282    -2.89761269    -0.05057282
12
Lattice="3.59989 0.00000 0.00000 -0.06919 3.54871 0.00000 -0.28322 0.13214 9.19260" Properties=species:S:1:pos:R:3:force:R:3 pbc="T T T" energy=-46840.63699 virial="-306.5810 -4.7443 -16.5059 -4.7443 -265.6640 11.0812 -16.5059 11.0812 -269.0190"
Ag    -0.24466613     1.89707973     8.55762886    -7.10170884     5.48868544   -16.92912093
Ag     1.54239120     1.96836318     7.03979885     0.42867358    -2.66890864    -8.56957599
Ag    -0.15342906     1.74558272     5.29940284    -1.43182188     1.40385692    -2.09826179
Ag     3.26941692     3.60559358     6.91587867     0.94451073     0.05640529    -4.23854762
Ag     1.57897919     0.16656650     5.27525753     2.89958673    -0.17563354    -1.02188104
Ag     1.44628166     3.64877981     8.48524766    -6.28165476     9.10850560   -12.71466805
Ag    -0.07289948     1.78210720     1.77447992    -0.24033391    -0.48787265     6.46001196
Ag     3.52555524     0.04948162     0.20888391     6.61357073    -6.99235022    14.15623602
Ag     1.62596223     3.52050785     1.75887579     1.79816258     2.56980508     5.28782083
Ag     1.78357293     1.80198620     0.15898741     5.57853467    -7.33777997    18.98695662
Ag    -0.07282991     3.51785320     3.58967684    -2.97913793     0.56739567    -0.87739177
Ag     1.72850889     1.90086989     3.44485768    -0.22901535    -1.53191405     1.55796388
12
Lattice="3.59989 0.00000 0.00000 -0.06919 3.54871 0.00000 -0.28322 0.13214 9.19260" Properties=species:S:1:pos:R:3:force:R:3 pbc="T T T" energy=-46840.69488 virial="-306.5440 -4.4014 -16.2318 -4.4014 -265.4800 10.3730 -16.2318 10.3730 -269.2400"
Ag    -0.25051966     1.89556232     8.56322559    -7.84735812     6.30500691   -17.45718800
Ag     1.53861117     1.98017625     7.03043389     0.48041077    -3.11453729    -8.33726239
Ag    -0.16565725     1.73922353     5.30041641    -1.31036095     1.40571337    -1.68177794
Ag     3.27910030     3.59691702     6.92468959     0.23900158     0.26980256    -4.70136221
Ag     1.56944423     0.17046923     5.26097781     3.63614137    -0.10478295    -0.22506110
Ag     1.43686915     3.64312247     8.47802761    -4.07579181     8.28891098   -11.55844920
Ag    -0.06332476     1.77667348     1.76495833    -0.69784137    -0.37930619     7.03946752
Ag     3.53337355     0.05162659     0.20006199     4.38726959    -7.83107694    14.41548392
Ag     1.62165055     3.51260983     1.76158662     2.25606730     2.71072677     5.37578041
Ag     1.77151244     1.78919913     0.17404581     6.74399757    -6.28856288    17.61358344
Ag    -0.06051047     3.51885639     3.60166014    -3.60774920     0.45960107    -1.67889130
Ag     1.73518953     1.91068974     3.44891612    -0.20425316    -1.72151477     1.19481315
12
Lattice="3.59989 0.00000 0.00000 -0.06919 3.54871 0.00000 -0.28322 0.13214 9.19260" Properties=species:S:1:pos:R:3:force:R:3 pbc="T T T" energy=-46841.11588 virial="-305.8870 -3.8792 -15.5351 -3.8792 -264.1750 8.8427 -15.5351 8.8427 -268.9750"
Ag    -0.25913480     1.89630324     8.56256061    -7.76231828     6.28487669   -16.95527104
Ag     1.53502648     1.99080349     7.01815490     0.49655414    -3.47256550    -7.99435485
Ag    -0.17827513     1.73340609     5.30082372    -1.14468656     1.40111209    -1.29644607
Ag     3.28880742     3.58839180     6.93176779    -0.50999708     0.51144088    -5.14574923
Ag     1.56126666     0.17430980     5.24670852     4.31448515    -0.02323325     0.54636873
Ag     1.42606277     3.64045734     8.46673106    -1.49382382     6.90012683   -10.00576587
Ag    -0.05405974     1.77113899     1.75800787    -1.12289160    -0.29737946     7.53248248
Ag     3.54270694     0.05096495     0.19643744     1.94846782    -7.88694630    14.05771566
Ag     1.61817089     3.50572875     1.76619753     2.68942632     2.80558585     5.43499054
Ag     1.76193383     1.77425044     0.19529052     7.02438256    -4.66455121    15.42315024
Ag    -0.04955599     3.52001713     3.61296855    -4.23971140     0.34449838    -2.45864015
Ag     1.74175488     1.91983324     3.45337492    -0.20126615    -1.90438556     0.86275227
12
Lattice="3.59989 0.00000 0.00000 -0.06919 3.54871 0.00000 -0.28322 0.13214 9.19260" Properties=species:S:1:pos:R:3:force:R:3 pbc="T T T" energy=-46841.78484 virial="-304.8630 -3.3402 -14.5399 -3.3402 -261.9290 6.6926 -14.5399 6.6926 -268.3990"
Ag    -0.27035766     1.89926122     8.55589189    -6.91714610     5.36380367   -15.50041652
Ag     1.53167871     2.00001867     7.00324798     0.47639279    -3.75420371    -7.59416774
Ag    -0.19108522     1.72818430     5.30076421    -0.92972731     1.38679632    -0.95649352
Ag     3.29816907     3.58019251     6.93690052    -1.28523207     0.79196027    -5.56054247
Ag     1.55475830     0.17807704     5.23287492     4.90661726     0.06730737     1.25916748
Ag     1.41490962     3.64028525     8.45207636     1.12418050     5.29604094    -8.37235931
Ag    -0.04535011     1.76559281     1.75384742    -1.50877972    -0.24086602     7.89743368
Ag     3.55257336     0.04751657     0.19786140    -0.38466315    -7.14566219    13.13553138
Ag     1.61570431     3.49995962     1.77265839     3.07795970     2.85076056     5.46641707
Ag     1.75500953     1.75790034     0.22164661     6.50939515    -2.76278683    12.82443415
Ag    -0.04029125     3.52128040     3.62321306    -4.84254841     0.22262560    -3.17420466
Ag     1.74813756     1.92814616     3.45806421    -0.22541198    -2.07428295     0.57551205
12
Lattice="3.59989 0.00000 0.00000 -0.06919 3.54871 0.00000 -0.28322 0.13214 9.19260" Properties=species:S:1:pos:R:3:force:R:3 pbc="T T T" energy=-46842.565 virial="-303.7070 -2.9536 -13.4185 -2.9536 -259.0110 4.2570 -13.4185 4.2570 -267.7900"
Ag    -0.28368635     1.90402228     8.54395693    -5.51461630     3.68807849   -13.39512227
Ag     1.52859803     2.00763760     6.98610571     0.41701160    -3.96296583    -7.18206919
Ag     3.39604229     1.72360601     5.30036930    -0.66006546     1.36879352    -0.67322983
Ag     3.30680041     3.57251524     6.93992119    -2.05881437     1.11108294    -5.93174746
Ag     1.55017225     0.18175641     5.21989489     5.38341542     0.15542626     1.87758336
Ag     1.40448307     3.64198507     8.43490453     3.46643257     3.78389228    -6.90936891
Ag    -0.03743029     1.76012600     1.75259397    -1.84950661    -0.20335912     8.12027781
Ag     3.56201197     0.04165155     0.20387335    -2.36340010    -5.78513635    11.80877894
Ag     1.61439573     3.49536622     1.78085475     3.40753063     2.84148259     5.47267032
Ag     1.75058481     1.74106065     0.25174258     5.43746100    -0.86442330    10.26669002
Ag    -0.03300788     3.52258473     3.63203527    -5.38247811     0.10041860    -3.79177637
Ag     1.75425173     1.93548170     3.46281747    -0.28258081    -2.23371858     0.33789042
12
Lattice="3.85556 0.00000 0.00000 -0.00883 3.89014 0.00000 -0.03908 0.32029 10.23119" Properties=species:S:1:pos:R:3:force:R:3 pbc="T T T" energy=-46891.13732 virial="-102.3450 -0.0586 -3.7338 -0.0586 -131.7030 9.2736 -3.7338 9.2736 -112.8590"
Ag     0.02119191     2.24082728     9.52278792    -2.19386714     3.84461643    -8.52843100
Ag     1.88690320     2.29189336     7.81480467     0.51818722    -1.50067937    -2.74209884
Ag     0.02182119     2.01330021     5.88859388    -0.47158252     1.32275726    -0.81435263
Ag     3.76407819     4.07521968     7.69011490     0.04740525     0.61297833    -1.59325203
Ag     1.85109040     0.28601755     5.86780332     0.82833971    -0.71668299    -0.60758057
Ag     1.84709108     4.17807370     9.43922712    -2.69495197     4.20064951    -6.46415316
Ag    -0.01067379     1.97919396     1.96374557     0.25392350    -0.08916491     2.45837481
Ag     3.77874998     0.05313355     0.21725927     1.56997150    -4.72889803     7.21156468
Ag     1.85045724     3.87818386     1.94463518     0.10818839     1.35226215     2.01119844
Ag     1.94952611     1.97898222     0.17700015     2.87433059    -3.63369065     8.88234136
Ag     0.08202360     3.92925786     3.99306417    -0.77289745     0.57317129    -0.21183620
Ag     1.99540071     2.15527266     3.83704480    -0.06711337    -1.23708602     0.39599589
12
Lattice="3.85556 0.00000 0.00000 -0.00883 3.89014 0.00000 -0.03908 0.32029 10.23119" Properties=species:S:1:pos:R:3:force:R:3 pbc="T T T" energy=-46891.06136 virial="-103.7760 0.0909 -3.6305 0.0909 -130.7230 9.0080 -3.6305 9.0080 -113.1410"
Ag     0.01621636     2.23901575     9.52988749    -2.74375729     4.29714262    -8.87458217
Ag     1.88313918     2.30391543     7.80648222     0.52412945    -1.73231187    -2.69525731
Ag     0.00976477     2.00692651     5.88983713    -0.49617152     1.32858461    -0.63718776
Ag     3.77360108     4.06664270     7.69939905    -0.12587364     0.72896054    -1.74250984
Ag     1.84118490     0.28982349     5.85359772     1.07227933    -0.68394218    -0.34098066
Ag     1.83832021     4.17153837     9.43312526    -1.66749799     3.91472115    -6.13113993
Ag    -0.00101065     1.97383157     1.95350811     0.08358940    -0.04440188     2.67872073
Ag     3.78566602     0.05568344     0.20719499     0.64607728    -5.28554732     7.48230729
Ag     1.84584323     3.87006803     1.94675984     0.24394568     1.40821080     2.04417998
Ag     1.93698186     1.96685779     0.19025089     3.44787370    -3.14797438     8.45667168
Ag     0.09473772     3.93026208     4.00516653    -0.95838148     0.53862327    -0.48845814
Ag     2.00211031     2.16514525     3.84089537    -0.02645508    -1.32210904     0.24497535
12
Lattice="3.85556 0.00000 0.00000 -0.00883 3.89014 0.00000 -0.03908 0.32029 10.23119" Properties=species:S:1:pos:R:3:force:R:3 pbc="T T T" energy=-46891.05537 virial="-105.2120 0.3039 -3.4271 0.3039 -129.2760 8.4654 -3.4271 8.4654 -113.4200"
Ag     0.01029147     2.23874786     9.53377922    -3.12378138     4.48392294    -8.96700975
Ag     1.87958440     2.31524839     7.79724753     0.53070052    -1.93000398    -2.65126278
Ag    -0.00239730     2.00106448     5.89084571    -0.50761093     1.32262220    -0.46476869
Ag     3.78302272     4.05837650     7.70800666    -0.31173735     0.84538618    -1.89943830
Ag     1.83172052     0.29336292     5.83935453     1.31883240    -0.64106562    -0.06648350
Ag     1.82900639     4.16643822     9.42487233    -0.57747702     3.48934227    -5.70375074
Ag     0.00862514     1.96848506     1.94428681    -0.09453768    -0.01162900     2.89833627
Ag     3.79277161     0.05633271     0.19985943    -0.27927761    -5.55476757     7.60428910
Ag     1.84134355     3.86250256     1.94960115     0.37552672     1.44487893     2.07870851
Ag     1.92574179     1.95368212     0.20643998     3.82683136    -2.55199791     7.84839194
Ag     0.10703474     3.93145250     4.01702305    -1.16545012     0.49822470    -0.77357644
Ag     2.00877078     2.17448780     3.84481054     0.00673346    -1.39563621     0.09714489
12
Lattice="3.85556 0.00000 0.00000 -0.00883 3.89014 0.00000 -0.03908 0.32029 10.23119" Properties=species:S:1:pos:R:3:force:R:3 pbc="T T T" energy=-46891.11485 virial="-106.5120 0.5525 -3.1445 0.5525 -127.4900 7.6744 -3.1445 7.6744 -113.6590"
Ag     0.00334303     2.24007653     9.53442943    -3.30706891     4.35825871    -8.79275116
Ag     1.87626972     2.32573134     7.78720517     0.53988462    -2.10426039    -2.61956697
Ag    -0.01456315     1.99575731     5.89167458    -0.50524168     1.31148421    -0.29958847
Ag     3.79219688     4.05053055     7.71581467    -0.51665419     0.96897852    -2.06762550
Ag     1.82286196     0.29662328     5.82529447     1.57383323    -0.59276954     0.21857163
Ag     1.81962264     4.16265149     9.41471326     0.51002843     2.99071098    -5.23428623
Ag     0.01808748     1.96321203     1.93622882    -0.28639293     0.00804877     3.11426466
Ag     3.79967487     0.05499955     0.19533134    -1.15200567    -5.50434310     7.56408129
Ag     1.83704257     3.85556012     1.95313957     0.50399535     1.46606087     2.11597351
Ag     1.91602414     1.93979124     0.22518179     4.00262978    -1.89454890     7.10610871
Ag     0.11873930     3.93280261     4.02843269    -1.39925740     0.45585913    -1.06532435
Ag     2.01533695     2.18319901     3.84870340     0.03461829    -1.46443948    -0.03956721
12
Lattice="3.85556 0.00000 0.00000 -0.00883 3.89014 0.00000 -0.03908 0.32029 10.23119" Properties=species:S:1:pos:R:3:force:R:3 pbc="T T T" energy=-46891.22868 virial="-107.5380 0.8043 -2.8072 0.8043 -125.5720 6.6890 -2.8072 6.6890 -113.9020"
Ag    -0.00461721     2.24291659     9.53195468    -3.28601691     3.92197785    -8.36691365
Ag     1.87322138     2.33523162     7.77646453     0.54946144    -2.25938755    -2.59909267
Ag     3.82892590     1.99103471     5.89237863    -0.48945775     1.29841407    -0.14456929
Ag     3.80097971     4.04320574     7.72271378    -0.73672269     1.10143321    -2.24008624
Ag     1.81476150     0.29959984     5.81163137     1.82930988    -0.54097890     0.50524629
Ag     1.81063265     4.16000873     9.40293367     1.51609723     2.48277755    -4.76483983
Ag     0.02723339     1.95806173     1.92945561    -0.48565122     0.01667763     3.31432986
Ag     3.80601368     0.05174969     0.19358177    -1.91428802    -5.15192439     7.36425577
Ag     1.83301764     3.84929410     1.95734601     0.62223954     1.47477462     2.15381997
Ag     1.90794324     1.92554603     0.24601109     3.98433828    -1.22734649     6.30151234
Ag     0.12968281     3.93428327     4.03920611    -1.64852329     0.41230324    -1.35698824
Ag     2.02176609     2.19119417     3.85249375     0.05841155    -1.52932057    -0.16567312
12
Lattice="4.02904 0.00000 0.00000 0.05135 3.83401 0.00000 -0.16677 -0.08973 10.21773" Properties=species:S:1:pos:R:3:force:R:3 pbc="T T T" energy=-46895.09155 virial="-111.3830 2.8017 -4.7348 2.8017 -89.8810 1.0102 -4.7348 1.0102 -104.4490"
Ag    -0.07208176     1.83700726     9.50888200    -2.34589147     1.96839982    -7.69696239
Ag     1.91036996     1.95031036     7.80982582     0.26308349    -1.03751184    -3.06577251
Ag    -0.01450949     1.75046675     5.88117324    -1.08321042     0.45738487    -0.63807085
Ag     3.89952732     3.70729201     7.68428068     0.15595269    -0.08317560    -1.51403426
Ag     1.84824576     0.05987778     5.86182318     1.68518961    -0.12268451    -0.36922728
Ag     1.87238701     3.73818735     9.41663587    -1.69759563     3.24114651    -5.22197746
Ag     0.00898315     1.87445407     1.95756542    -0.00110548     0.32254122     2.62845571
Ag     3.94638123     0.04799594     0.22542608     2.09437482    -2.64298863     6.30771613
Ag     1.97053453     3.76107219     1.94953984     0.69343787     0.88570626     2.00687676
Ag     2.06647962     1.94629549     0.18185739     1.49198935    -2.52347169     7.71783190
Ag     0.10275421     3.71703961     3.99546119    -1.29296879    -0.08193521    -0.38424585
Ag     2.06341207     1.97666454     3.83293650     0.03595230    -0.38341758     0.22753884
12
Lattice="4.02904 0.00000 0.00000 0.05135 3.83401 0.00000 -0.16677 -0.08973 10.21773" Properties=species:S:1:pos:R:3:force:R:3 pbc="T T T" energy=-46895.03172 virial="-111.5670 2.9353 -4.6754 2.9353 -90.0812 0.7866 -4.6754 0.7866 -104.8060"
Ag    -0.07708450     1.83486009     9.51613032    -2.70672887     2.44696719    -8.02281564
Ag     1.90656031     1.96241528     7.80144547     0.32173314    -1.23228402    -3.08338333
Ag    -0.02667532     1.74393824     5.88244802    -1.06700464     0.46606502    -0.46353334
Ag     3.90906963     3.69859048     7.69357900    -0.11573201    -0.03404182    -1.62573537
Ag     1.83849355     0.06378999     5.84766022     1.94415089    -0.07606520    -0.12238758
Ag     1.86379456     3.73148037     9.41075623    -0.94387853     2.99840141    -4.87566107
Ag     0.01860066     1.86916533     1.94735839    -0.17531131     0.39982464     2.82598173
Ag     3.95339108     0.05091898     0.21520010     1.30208680    -3.07982847     6.53937899
Ag     1.96602523     3.75287289     1.95166373     0.84498766     0.92686371     2.06788944
Ag     2.05368807     1.93436968     0.19489981     2.04563604    -2.22459059     7.32853298
Ag     0.11537530     3.71792664     4.00753271    -1.51898444    -0.13204874    -0.65911872
Ag     2.07014010     1.98668985     3.83675694     0.06753578    -0.45981236     0.08897543
12
Lattice="4.02904 0.00000 0.00000 0.05135 3.83401 0.00000 -0.16677 -0.08973 10.21773" Properties=species:S:1:pos:R:3:force:R:3 pbc="T T T" energy=-46895.00898 virial="-111.7230 3.1025 -4.5832 3.1025 -90.0256 0.3777 -4.5832 0.3777 -105.1900"
Ag    -0.08302293     1.83359862     9.52047345    -2.96353624     2.78434176    -8.18155371
Ag     1.90288816     1.97400836     7.79201524     0.38004721    -1.41451633    -3.09818049
Ag    -0.03914915     1.73761496     5.88354985    -1.04159077     0.47085430    -0.29319888
Ag     3.91851368     3.68992876     7.70224187    -0.39097130     0.01823545    -1.73985795
Ag     1.82949307     0.06765170     5.83353815     2.19623130    -0.02211043     0.12887615
Ag     1.85491671     3.72588303     9.40317243    -0.15261307     2.67540896    -4.47288220
Ag     0.02809823     1.86405079     1.93822038    -0.35424680     0.46847512     3.01422595
Ag     3.96082356     0.05272593     0.20736791     0.51141355    -3.38080326     6.67816773
Ag     1.96184426     3.74505317     1.95451261     0.98769350     0.96792627     2.12204742
Ag     2.04170261     1.92172150     0.21047860     2.48654071    -1.84899862     6.82231515
Ag     0.12737918     3.71876127     4.01929705    -1.75513042    -0.18364963    -0.93697671
Ag     2.07685207     1.99649129     3.84058630     0.09609755    -0.53439526    -0.04339773
12
Lattice="4.02904 0.00000 0.00000 0.05135 3.83401 0.00000 -0.16677 -0.08973 10.21773" Properties=species:S:1:pos:R:3:force:R:3 pbc="T T T" energy=-46895.02396 virial="-111.8300 3.2858 -4.4596 3.2858 -89.6890 -0.2009 -4.4596 -0.2009 -105.5270"
Ag    -0.08992730     1.83334449     9.52184730    -3.09866801     2.92477670    -8.13582548
Ag     1.89940458     1.98492988     7.78162218     0.43724210    -1.58466478    -3.11531563
Ag    -0.05181093     1.73155118     5.88453145    -1.00013682     0.47339445    -0.13069703
Ag     3.92768108     3.68139989     7.71016039    -0.67263014     0.08142483    -1.86125068
Ag     1.82140397     0.07144922     5.81966790     2.44097415     0.03682579     0.38598257
Ag     1.84611418     3.72131761     9.39411061     0.64566932     2.30350168    -4.03760116
Ag     0.03733140     1.85917726     1.93028629    -0.54105116     0.52680543     3.18851234
Ag     3.96832925     0.05330573     0.20202195    -0.24372838    -3.50342313     6.69422073
Ag     1.95807511     3.73769132     1.95807362     1.11909525     1.00334631     2.17028065
Ag     2.03077519     1.90860113     0.22825325     2.79573284    -1.41822589     6.21981568
Ag     0.13858454     3.71951849     4.03055694    -2.00357831    -0.23378860    -1.21504429
Ag     2.08350023     2.00595991     3.84434438     0.11997960    -0.61312471    -0.16362771
12
Lattice="4.02904 0.00000 0.00000 0.05135 3.83401 0.00000 -0.16677 -0.08973 10.21773" Properties=species:S:1:pos:R:3:force:R:3 pbc="T T T" energy=-46895.07527 virial="-111.9330 3.4701 -4.3152 3.4701 -89.0951 -0.9211 -4.3152 -0.9211 -105.8720"
Ag    -0.09777132     1.83413073     9.52031208    -3.10692327     2.85300838    -7.89896656
Ag     1.89615461     1.99504336     7.77036264     0.49213751    -1.74333509    -3.13487293
Ag    -0.06453957     1.72579226     5.88544459    -0.94710782     0.47142879     0.02015931
Ag     3.93640281     3.67309309     7.71724109    -0.95574139     0.15408125    -1.98398816
Ag     1.81436164     0.07517371     5.80624849     2.67381617     0.10196092     0.63871571
Ag     1.83773952     3.71767048     9.38382588     1.39574120     1.93663479    -3.61247044
Ag     0.04616395     1.85460052     1.92365988    -0.73204173     0.57658017     3.34357828
Ag     3.97557864     0.05263310     0.19916511    -0.91559355    -3.43930040     6.59172180
Ag     1.95478724     3.73085123     1.96232165     1.23930682     1.03904259     2.21201556
Ag     2.02108435     1.89527641     0.24782529     2.97174759    -0.97581286     5.58334600
Ag     0.14882724     3.72017585     4.04113188    -2.25491987    -0.28506851    -1.48624787
Ag     2.09004019     2.01499709     3.84795942     0.13915257    -0.69091227    -0.27229246
12
Lattice="4.30426 0.00000 0.00000 0.07103 4.37912 0.00000 -0.11610 0.36214 11.15179" Properties=species:S:1:pos:R:3:force:R:3 pbc="T T T" energy=-46910.30737 virial="-2.1190 0.8087 -2.2001 0.8087 -27.3052 4.3118 -2.2001 4.3118 -33.1038"
Ag    -0.00682419     2.52986018    10.38943577    -0.97090568     1.48765759    -3.26392153
Ag     2.09615941     2.58035406     8.51256017     0.20173882    -0.53365022    -0.57916273
Ag     0.01504325     2.26192813     6.42219686    -0.15121596     0.37430046    -0.21142591
Ag     4.23155462     4.57575520     8.37908580    -0.08505596     0.23467731    -0.41155609
Ag     2.01595968     0.32455058     6.39740657     0.29765742    -0.17474489    -0.11235235
Ag     2.07066266     4.68372359    10.28294954    -1.34074761     2.25446578    -2.28056407
Ag     0.03266845     2.23973497     2.13543205     0.11205795     0.03691548     0.57665167
Ag     4.20741386     0.06289483     0.23905053     0.80462602    -1.89421238     2.50527883
Ag     2.14136437     4.37336170     2.13947667    -0.02226129     0.37585128     0.39504868
Ag     2.21376638     2.22905399     0.18898533     1.43539010    -1.90030686     3.40703724
Ag     0.15713920     4.43422706     4.35236156    -0.26412654     0.08252027    -0.05046068
Ag     2.24465847     2.43451211     4.18496094    -0.01671363    -0.34360171     0.02536075
12
Lattice="4.30426 0.00000 0.00000 0.07103 4.37912 0.00000 -0.11610 0.36214 11.15179" Properties=species:S:1:pos:R:3:force:R:3 pbc="T T T" energy=-46910.27078 virial="-2.3704 0.8636 -2.1673 0.8636 -27.3162 4.2567 -2.1673 4.2567 -33.2757"
Ag    -0.01158096     2.52762700    10.39747714    -1.16958228     1.68980310    -3.42225844
Ag     2.09233878     2.59254912     8.50462466     0.20048305    -0.61069623    -0.57399461
Ag     0.00304415     2.25538476     6.42354797    -0.15815502     0.37930665    -0.15737240
Ag     4.24105381     4.56711054     8.38858135    -0.13786301     0.26844949    -0.44156804
Ag     2.00595924     0.32845347     6.38328956     0.37764673    -0.16661245    -0.03819959
Ag     2.06213406     4.67684011    10.27759610    -0.99593302     2.14104389    -2.14369895
Ag     0.04230621     2.23439513     2.12485796     0.08355875     0.05899510     0.63093006
Ag     4.21419298     0.06595182     0.22814432     0.48548279    -2.13231257     2.62061560
Ag     2.13672702     4.36507119     2.14131221    -0.00652970     0.39414639     0.40300314
Ag     2.20096471     2.21723966     0.20125656     1.65097796    -1.72126097     3.26974822
Ag     0.16994434     4.43514351     4.36449280    -0.32216089     0.07277598    -0.13325896
Ag     2.25137709     2.44454455     4.18874520    -0.00748909    -0.37350304    -0.01474234
12