128
Lattice="12.615 0.000 0.000 0.000 12.666 0.000 0.000 0.000 24.942" Properties=species:S:1:pos:R:3:forces:R:3 energy=-595.20861816 virial="-356.67144775 0.52330709 -1.14592814 0.52330709 -361.92620850 -0.35479891 -1.14592814 -0.35479891 -342.62139893"
Si     1.62078138     4.66707541     1.54450753    -0.19498250     0.10871950     0.02007595
Si     6.41563445     9.34963493    12.37963310    -0.03819194     0.67561936     0.15818447
Si     6.17933052     3.09610080    18.75629391     0.32930785     0.01262985    -0.22558698
Si     6.35018685     3.22413298    12.48806549    -0.06652559    -0.40690273    -0.10719723
Si     0.10560636     9.54556034    18.59162330    -0.42988241     0.15081105     0.20139164
Si    -0.05171953     9.63224031    12.40621817    -0.11662887    -0.18976095     0.34622937
Si     0.08589331     3.22436650    18.77112282    -0.21571256    -0.10858403    -0.43713713
Si    -0.08644351     3.20330878    12.52180893     0.23608306     0.08147986    -0.08029133
Si     7.89752054     7.80625814    23.41591444     0.00018734     0.17703292    -0.09134632
Si     7.77745528     7.89082743    17.07724861     0.33679855     0.07181669     0.12672122
Si     7.90592314     1.57776868    23.37448441     0.16233280     0.01921070     0.08898599
Si     7.78451923     1.44785155    17.15076008     0.06792157     0.22854421     0.00784089
Si     1.61994740     7.93664528    23.45056160    -0.09858185     0.26142675    -0.10280079
Si     1.66960022     8.06778478    17.03890985    -0.28839105    -0.62429011     0.21273230
Si     1.65278928     4.79949533    20.26819396    -0.16610685     0.05595348    -0.05884391
Si     1.46237522     1.69889494    23.36837721     0.23782514    -0.35577327     0.08754278
Si     6.14856053     6.44116540    21.79187465     0.43219894    -0.27901703     0.11906722
Si     6.34718617     6.25025645    15.55197987    -0.09744713     0.29485935    -0.18118888
Si     6.39521883    12.61078746    21.87037253    -0.34842062     0.17522308    -0.12678933
Si     6.15794981    12.53669977    15.56940743     0.25401309     0.19089091    -0.12908299
Si     0.06540419     6.49140948    21.74520585     0.06749099    -0.51220965     0.11070780
Si    -0.05516542     6.37698441    15.67709617     0.21549955     0.18901853    -0.38368279
Si     0.00541083    12.73101789    21.75327108    -0.01933599     0.18275282     0.09762239
Si     0.00646875    12.68308295    15.73208354    -0.34244367    -0.02978976    -0.58013034
Si     8.00680623    10.97378542    20.33480903    -0.21258307     0.25118724    -0.15736769
Si     7.82995449    11.11939249    14.01233124     0.03910040    -0.38600552     0.06932937
Si     7.88735016     4.76819520    20.30715961    -0.31744236     0.01431908    -0.19793230
Si     7.91584019     4.72493560    13.97211823     0.05254165     0.09339558     0.31512231
Si     1.55518941    11.25523516    20.23667900     0.13281649    -0.36377227    -0.19828105
Si     1.60215295     1.66227622    17.07591936    -0.04021807    -0.10514043     0.16829433
Si     1.38886896    11.15436793    14.01830424     0.58122385    -0.19721165     0.03841008
Si     6.34273132     9.55787504    18.69241698    -0.36587265    -0.39500639    -0.03680284
Si     9.41929676     6.31773125    18.67122224     0.03281384     0.00524436     0.02470943
Si     9.44715763     3.18707694    21.79562244     0.31577337     0.01713395    -0.07519266
Si     9.40046031     3.09830054    15.65273285     0.08120158    -0.00304673    -0.18020225
Si     3.12331438     9.63862347    21.84823880    -0.06007844    -0.06475513    -0.13270436
Si     3.15650512     9.49909402    15.44659278     0.02291299     0.30953836     0.20462073
Si     3.10457026     3.20544582    21.85834656    -0.00135042     0.05552460    -0.17424341
Si     3.17669323     3.18298092    15.31804555    -0.15415946    -0.01915227     0.79424834
Si    11.08015359     7.95298958    20.11998769     0.06300206    -0.15146543     0.39154944
Si    11.04554324     8.00869367    14.04852202    -0.17821512    -0.05761358    -0.22923610
Si    11.12180621     1.63739860    20.14400836    -0.18488196    -0.17945623     0.41869050
Si    11.05654248     1.57528465    14.14630067    -0.18228987     0.03602992     0.02417347
Si     4.63700212     8.01687627    20.23207518     0.33321691    -0.09760353    -0.00203879
Si     4.92217892     8.00147662    13.92728244    -0.64304769    -0.48615533     0.36085370
Si     4.66880398     1.50011284    20.27747009     0.05697961     0.29431051    -0.05729485
Si     4.67285153     4.83142524    23.32133921     0.15236484    -0.01884823     0.31467268
Si     4.71823723     4.69570318    17.07446077     0.04190342     0.05762015    -0.07523296
Si     9.58130683     6.40893966    12.40509252    -0.41870409    -0.37461632     0.10232806
Si     9.50868878    12.64572606    18.64684931    -0.12550247    -0.17964086     0.18598285
Si     9.47461795    12.69252303    12.64362353    -0.12819114    -0.02702887    -0.31274050
Si     3.19355333     6.32454080    18.61129890    -0.10549840     0.26466298     0.15103203
Si     3.19286807     6.56216952    12.51854142    -0.00806860    -0.45917365    -0.29489887
Si     3.08977723    12.73570262    18.59310617     0.08851059    -0.19225171     0.33067694
Si     3.01857827    12.57326764    12.49781766     0.30755505     0.43335390    -0.01917743
Si    11.12696567    11.06570587    23.39193323    -0.21443361    -0.15688843     0.09740351
Si    10.93792085    10.99326095    17.14269260     0.38485089     0.41462260    -0.08922838
Si    11.15815376     4.77173942    23.27996993    -0.53417969    -0.15175480     0.36179277
Si    10.94539879     4.67643178    17.20623170     0.25568211     0.26217362     0.03408146
Si     4.65060586    11.22655502    23.36245512     0.34887111    -0.38410521     0.12904003
Si     4.60779878    11.00496649    17.10238311     0.27186611     0.34056902    -0.09775864
Si     4.67771409     1.44578142    13.91823404    -0.04895954     0.32347360     0.22524470
Si     1.55009306     4.91980304    14.00140455     0.02254881    -0.30567256     0.01370917
Si     9.44727838     9.38774733     9.44384734     0.17830677     0.29690605    -0.37728351
Si     9.34521119     9.33802752     2.95492808     0.14561519     0.45304370     0.21289881
Si     0.03389096     9.48062593     6.07232806    -0.22626814    -0.29278129     0.22191918
Si     0.02753697     9.51727466     0.08581726     0.02947556    -0.08017230    -0.32380661
Si     0.01087490     3.25196481     6.26948342    -0.01089284    -0.02040216     0.00534558
Si    -0.08748314     3.13749463     0.04487431     0.43720791     0.18351622    -0.23017374
Si     7.90723513     7.75782643    10.80980880     0.02941078     0.29944751     0.18357411
Si     7.83054958     7.90766838     4.60480812     0.02968159    -0.23186824     0.20723541
Si     7.91157263     1.53750639    11.10535215    -0.01247770     0.23750436    -0.30168432
Si     7.85221196     1.52411266     4.76190515     0.21659853     0.00063160    -0.00011898
Si     1.55429651     7.99131393    10.90775682     0.13902828    -0.06393398     0.20879652
Si     1.55063682     7.75083004     4.55147818     0.13159008     0.53085887     0.24434075
Si     1.52656802     1.67293316    10.97097578     0.06760614    -0.29137325     0.10292907
Si     1.57912923     1.68012636     4.66303288     0.01554186    -0.44880801     0.09903219
Si     6.29556921     3.04638125     6.34064113     0.16374531     0.21215336    -0.06988840
Si     6.22624718     6.19902950     9.16768434     0.30360577     0.23902437     0.79682511
Si     6.36378200    12.62999051     9.59165604    -0.04823877    -0.11563949    -0.26399305
Si     6.36661604    12.72794809     3.08161786    -0.16976610     0.01543861     0.11103762
Si     0.00326330     6.28106241     9.31627976     0.03860822     0.41659269     0.05152268
Si    -0.02648240     6.27489757     2.99212992     0.07944175    -0.07713015     0.32944351
Si     0.03046063    12.63380647     9.37144942    -0.34560001     0.18032312     0.01435197
Si    -0.07737856    12.54808729     3.17164983     0.06144696     0.43929279    -0.14950845
Si     7.93443380    10.92582233     7.93451254    -0.29548207     0.26313198    -0.15543145
Si     7.83081501    11.16062890     1.51155165     0.34698188    -0.53050011     0.01913807
Si     7.92974396     4.65668996     7.83974768    -0.25889522     0.06915541    -0.19026531
Si     7.94885562     4.72395202     1.66732523    -0.00941707    -0.15456259    -0.26722375
Si     1.59625385    11.01903573     7.77117867     0.03370639     0.23192179     0.09129898
Si     1.60075138    11.15796130     1.67549815    -0.11745024    -0.39031744    -0.15847994
Si     1.59493402     4.82478153     7.83726125    -0.04579041    -0.21944426    -0.08392606
Si     6.25674960     6.24035058     3.13613779     0.43185592     0.46658236    -0.01020890
Si     6.38463156     9.52743800    -0.01258935    -0.35572296     0.25297534     0.02462779
Si     6.42159275     3.26853264    -0.04461756    -0.26155758    -0.24282414     0.02503653
Si     6.28602631     9.46560709     6.24922384     0.06678215     0.14295995     0.23029229
Si     9.44106312     3.10047946     9.41258278     0.05267988     0.02724135     0.12349243
Si     9.52758878     6.43455113     6.29399542    -0.14973438    -0.31591061    -0.31933418
Si     9.55118667     3.13561426     3.29369482    -0.42572826     0.04416043    -0.23618653
Si     3.20938631     9.44744679     9.52388352    -0.06051287     0.26243654    -0.54533082
Si     3.23688021     9.45750958     3.21394051    -0.25042576     0.40877688    -0.21275401
Si     3.17860923     3.26622647     9.54414006    -0.11168858    -0.29382440    -0.43115214
Si     3.21371907     3.06648062     3.02788273    -0.02382625     0.57385421     0.18495663
Si    11.12640853     7.97806659     7.70781512    -0.20196813    -0.31528437     0.33880335
Si    11.00468994     7.81606866     1.41999377     0.04977894     0.03983660     0.34671235
Si    10.98799018     1.50857193     7.81721783     0.14824301     0.08513366     0.09961956
Si    11.01212216     1.53662456     1.66950419     0.08024333    -0.13258801    -0.14862630
Si     4.64683741     7.93972688     7.82715748     0.18247578    -0.32285663    -0.24677436
Si     4.76040606     8.12741317     1.54517468     0.01113558    -0.88316172     0.18761858
Si     4.71966629     1.51028725     7.98412473     0.06837468     0.29520422    -0.15662238
Si     4.85317899     1.70195525     1.41020124    -0.30786937    -0.40636644     0.49186298
Si     9.50784939     6.15195999    -0.01896503    -0.01537535     0.53425324    -0.07779345
Si     4.79399945     4.70764719     4.71386163    -0.34953883    -0.18088850    -0.06366825
Si     9.39371817    12.52399191     6.31527559     0.06078343     0.09045902    -0.17156035
Si     9.49622941    12.57976254     0.02764347    -0.12660664     0.40827599    -0.02891199
Si     3.09830572     6.33407162     6.19626599     0.11605492    -0.08395516     0.18405101
Si     3.19201742     6.34594411     0.09684455    -0.10013267     0.13312593    -0.47438926
Si     3.14346490    12.72568921     6.26764045     0.12066836    -0.18238294     0.22367010
Si     3.10089902    12.74433434     0.02921939     0.17958635     0.22069803    -0.24602278
Si    10.94389417    11.15784081    10.96747248     0.30145323    -0.27721691     0.00917021
Si    10.88696491    10.91923000     4.55948238     0.38860273     0.14693798     0.25341672
Si    11.02612088     4.74899406    10.91542466     0.08920474    -0.03501371    -0.06659240
Si    11.04422398     4.82845180     4.77395978     0.18518437    -0.19258578    -0.24449416
Si     4.82916283    11.06779667    11.06481141    -0.32967827    -0.37221479    -0.22392443
Si     4.78665354    11.16173670     4.81188410    -0.11285666    -0.24768397    -0.41720831
Si     4.79457898     4.78797703    10.96237109    -0.13156237     0.10680213    -0.13987084
Si     9.31010726     9.52748489    15.52139730     0.32444742    -0.10550203     0.21572003
Si     9.54560436     9.34247552    21.89112575    -0.02915699     0.41208082    -0.30418754
128
Lattice="9.862 0.000 0.000 0.000 9.734 0.000 0.000 0.000 20.426" Properties=species:S:1:pos:R:3:forces:R:3 energy=-609.55065918 virial="494.10549927 -9.55791283 13.40107822 -9.55791283 492.76885986 7.23869562 13.40107822 7.23869562 507.89059448"
Si     1.33004115     3.65668021     1.15709590     0.45534110     0.14414121     0.32556337
Si     5.12219062     7.18576251    10.09605313    -1.55849338     0.23917493     1.26457691
Si     4.86005008     2.34393208    15.08657620    -2.34594059    -0.47836420     1.94759309
Si     4.83511336     2.35078612    10.30770392     1.96822429     1.47531581    -0.87422705
Si    -0.12328880     7.39923701    15.17575631     1.01187396    -0.27428424    -0.04918317
Si    -0.17962712     7.31561453    10.44491389     0.43982360     1.82027340     0.15410535
Si    -0.01859762     2.54847326    15.12276920     0.19912875    -0.71311307     2.03967714
Si     0.01710111     2.51977013    10.40739340    -1.07288575    -0.45909238    -1.46549296
Si     6.24680788     6.11398307    19.02063810    -0.77576846     1.80649257     1.01355338
Si     6.10162497     6.12036567    13.96372332    -0.07535821    -1.80436730     0.48760331
Si     6.43055174     1.32007588    19.02077726    -0.90777218    -0.47122875     0.13051531
Si     5.93991011     0.97143560    14.04419733     1.28988457    -2.36969328     0.30855742
Si     1.32810056     6.36998895    19.01223290    -1.27089167    -0.79276597    -0.27857769
Si     1.09508556     6.03233881    13.94088048     1.02336192     1.10600007     1.13285255
Si     1.30705439     3.86701502    16.36872438     0.63576138     0.06449454    -0.90655327
Si     1.27740491     1.22252667    19.13951192    -0.54486239     2.07847309    -1.33435035
Si     4.91516275     4.93206621    17.82293028    -0.58619559     0.09073628    -0.16186740
Si     4.93960884     4.87215348    12.59355885     2.76699829    -0.34996825     1.27923822
Si     4.94482975     9.84656694    17.90562121     1.40356278    -0.69079113     0.22136599
Si     4.81536777     9.77010597    12.55583642    -0.07303285    -1.62471008    -0.44257534
Si     0.18297278     4.87124636    17.96444686    -0.09102087    -0.52466327     0.05008590
Si    -0.10840926     5.10554999    12.49020329     0.62306285    -1.43592000     1.01746142
Si    -0.05751575     9.82225402    17.92319032     0.00735674    -1.24609959    -0.66556752
Si    -0.16605062     9.77749470    12.64803015     1.92247593     1.74988246    -1.17858481
Si     6.05066606     8.36755580    16.61770012    -0.67456567    -0.15134655    -0.63700116
Si     6.14022368     8.35947765    11.61927642     0.82582176    -0.09069224    -0.31984198
Si     5.84201251     3.56851781    16.45543996     2.56592226     0.14519796     1.50293911
Si     6.29383729     3.54634251    11.58760249    -1.15188050    -1.84115481     0.11109962
Si     1.16250902     8.61909235    16.45257216    -1.72537804     0.89666402    -0.09542377
Si     1.17089674     1.22225693    13.89885491     0.53578782    -0.57126349     0.09609923
Si     1.20637557     8.69329663    11.47977645     1.11368704    -0.92038453    -0.84540975
Si     4.69838971     7.19655191    15.11164056     1.85207725     0.75547838     0.88609684
Si     7.28272887     4.85063029    15.34405177     0.40495193     0.09823023     0.34174335
Si     7.55300895     2.52852576    17.67238347    -3.66537309     2.54825592    -1.28591263
Si     7.25139027     2.31879737    13.10307429     0.58136177     1.33208108     0.68504262
Si     2.41227562     7.54458332    17.75074638     1.00084472     1.91659963     0.01481586
Si     2.45341936     7.35964390    12.71671993    -0.01456761    -1.02410388    -0.23098315
Si     2.43991585     2.64627135    17.87709245    -0.35706693     0.21425208    -0.10807133
Si     2.34435504     2.63346944    12.73112987    -1.52865422    -1.44111776     0.45102751
Si     8.83227618     6.01665112    16.53929255    -0.74598777    -1.44955730    -0.34723073
Si     8.32534796     6.10649563    11.46492297    -2.19894314    -1.09878969    -3.08167744
Si     8.61321624     1.24652481    16.54065471     2.65132570    -0.90619451    -2.71025038
Si     8.51744908     1.44634734    11.62999177    -0.87902033     0.64991558    -0.63933599
Si     3.67814882     6.31036474    16.67625254     0.34175533    -2.03536534     1.08272195
Si     3.70452216     5.96153877    11.42630467    -2.00653338     3.27674150    -2.19570065
Si     3.63187440     1.23759204    16.66263533     0.05665487     1.55318010    -0.67938268
Si     3.70660259     3.83218995    19.25525660     0.80651683    -1.40545654     0.26536208
Si     3.79134913     3.61507904    13.80437018    -0.24986568     1.38777208     1.74926126
Si     7.36066095     4.67212758    10.18954540     0.56550711     0.68918359    -1.83500314
Si     7.34352524     9.72115612    15.36297006    -0.35028732    -1.24684203     0.16932213
Si     7.42485649     9.76032964    10.42020578    -0.18385217    -1.30929756     0.27300012
Si     2.75510040     5.14217426    15.07862145    -0.27010685    -1.06797600    -0.04210188
Si     2.30893742     4.87822162    10.14803572     1.05594420     2.18846464    -1.62989676
Si     2.49491492     9.80622857    15.24597302    -1.51507246     1.79286122     0.68375325
Si     2.46164684     9.82798963    10.07654950     1.81220376    -0.45046559     1.63833642
Si     8.66867418     8.44755653    19.21297481     0.95620286     0.63032413     0.54497993
Si     8.61240101     8.65811402    13.90358847    -1.72976565     0.36169684     3.27280521
Si     8.64268081     3.59319529    19.06049945     1.16135216     1.30240774     0.44565648
Si     8.65866439     3.82195311    13.89674280    -0.96024024     1.09646559    -0.29605302
Si     3.59299693     8.69101860    19.16274351     0.30251139    -0.30187222    -1.06914866
Si     3.66531017     8.63125299    14.02360023     0.47834542     0.25010255    -2.47487450
Si     3.53435320     1.33292141    11.55383537    -2.24842477    -0.57229483    -0.18376763
Si     1.20388291     3.82154518    11.45690030    -0.45917541    -0.12652333     1.96931589
Si     7.60395801     7.28945166     7.55501153    -1.62792540     2.21269131     1.04818034
Si     7.29754394     7.12550280     2.47744407     0.57141769    -1.64660740     0.47343200
Si    -0.01687243     7.08825229     5.07436161     0.35398972     1.01710296     1.27434254
Si     0.11527819     7.26686375     0.04219023    -1.38042498    -0.55156398     0.27668780
Si     0.04549092     2.35848982     5.25663484     0.44658878     0.15967694    -1.06609631
Si    -0.02415722     2.45770521    -0.01475309     0.39318979    -0.67657596     0.04911235
Si     6.30423617     6.02263903     8.79371340     3.71467113     1.58239460     1.21811962
Si     6.07651127     6.05585972     3.96927710     1.21572495    -0.04375559    -1.75570083
Si     6.22597884     1.19488111     9.05786958     0.01196501     0.64181131     0.07221814
Si     6.22348280     1.03711019     4.12056008    -0.43929291    -0.13614182    -0.68174988
Si     1.13681904     6.35721068     9.09326627     3.05159307     2.37251568    -0.16974878
Si     1.31188204     6.11207192     3.75443266     0.80308068    -0.72947598    -0.89494985
Si     1.02372095     1.17167945     9.08965554    -0.21363066     2.52961111     0.21035092
Si     1.36812117     1.11371383     4.02758104    -0.47402903    -0.01159860    -1.45244336
Si     4.84831061     2.23364008     5.25459389     0.20118460    -0.69904399    -0.23788323
Si     5.04371474     4.84668364     7.77884466    -2.42866850    -2.59029770    -2.43887901
Si     4.92434971     9.59589957     7.98116098    -0.77825785    -1.02092803     3.36672020
Si     5.08012388     9.83544213     2.47003714     0.54968798    -1.28316450     0.99256933
Si     0.16499655     5.15917832     7.75276219     0.98471713    -3.09020472    -1.28870058
Si     0.05876229     4.72332133     2.59233210     0.92608643     1.17329490    -0.84586173
Si    -0.02908871     9.75740175     7.77251290    -0.98802340     0.37719578    -2.64228630
Si    -0.08795538     9.69740935     2.70956625     1.53931189     0.66230738    -0.58065444
Si     5.92704679     8.44295737     6.60831090     2.50012898    -0.63156748     0.26843685
Si     6.23329223     8.40348338     1.20094050    -1.08853054     1.41115832    -1.24911559
Si     6.13526512     3.47016513     6.41084389     0.42940119     1.29163814     0.31918228
Si     6.31040892     3.56639371     1.26537711     0.12027250    -0.61932254    -0.18205503
Si     1.01397370     8.66609838     6.28924103     0.58625388    -2.23071909    -0.35061410
Si     1.23689634     8.61770829     1.17680816    -0.16225475     1.01647997     2.38854599
Si     1.27332474     3.58769395     6.48170162    -0.70757473     1.75765514     1.18053687
Si     5.10577054     4.75942767     2.57354633    -0.06940317    -1.71510792     1.91120386
Si     4.73033576     7.35529940    -0.05170313     1.13804650    -2.12887049     0.58273017
Si     5.05150436     2.36586666    -0.05496671    -1.01179111     0.27833235    -0.41909248
Si     4.97730821     7.21353798     5.25945766    -2.14080191     1.70758343    -1.23539639
Si     7.48568156     2.33071076     7.68403253     0.59812587     0.82269651     0.98049712
Si     7.35505965     4.71337137     4.99791053     0.69716358    -0.41848516     1.52992857
Si     7.30713544     2.32872898     2.74857248    -0.10445663    -0.41569287    -0.36087397
Si     2.55181077     7.24772259     7.41217460    -2.06413651    -0.03256138    -0.82485199
Si     2.53537309     7.40953502     2.50021487     1.67904639     0.12637517    -0.18151751
Si     2.37345900     2.33285721     7.82172043     0.21907233     0.66030073     1.54346418
Si     2.47391477     2.48490034     2.62368213    -1.68855095    -1.06239963    -0.66046131
Si     8.64265109     5.92699850     6.41331934    -1.27380180    -1.93241966    -2.98681545
Si     8.71581851     5.95865657     1.22142217    -0.65994596    -0.34618706     0.31242770
Si     8.57491660     1.09990840     6.29145544    -0.00211468    -0.91235048     0.85461754
Si     8.63786905     1.26914185     1.33904369     0.07146563     0.00674859     0.84367979
Si     3.77849226     5.80705923     6.26014661    -0.03621159    -0.38540250     1.87057960
Si     3.76963747     5.76531842     1.34207336    -0.85729432     3.21034336    -0.30878818
Si     3.87321295     1.20798970     6.82633232    -0.56410503     1.01201510    -0.52698827
Si     3.70829625     1.24916177     1.31631996     0.83805019     1.65304041     0.43396780
Si     7.38583286     4.79766305    -0.13073963     0.35193884     0.79314411     0.63185894
Si     3.78934167     3.45834356     3.92171766     0.99795306     2.43002176    -0.56364155
Si     7.36195832     9.38760212     5.28157631     0.77524149    -1.55220628    -0.44735163
Si     7.48513734     9.78198561    -0.01833872    -0.76387066    -0.40637928     0.74413693
Si     2.41933997     4.74123681     5.05784840    -0.83281159    -0.49810243    -1.28701019
Si     2.36292605     5.11837023    -0.10325176    -0.43525055    -0.80922002     0.52125543
Si     2.62723168     9.82843583     5.46447580     0.71788895    -0.39120656    -0.17057866
Si     2.47376196     9.91651391     0.02277471     0.07008207    -0.76702482     0.88662505
Si     8.63901005     8.58846357     8.98913458    -1.47000027    -1.20282316     1.50361872
Si     8.59474344     8.25647165     3.77612471    -0.87016296     0.51124918     0.57790536
Si     8.83845883     3.70996221     8.87964469    -0.45937684    -0.74183971    -0.47390088
Si     8.74518072     3.50948454     3.83857112    -0.43214548    -0.59088975     0.76717484
Si     3.48182901     8.24120596     9.06852033     0.88774925    -0.34020820     0.10277554
Si     3.79781678     8.66965242     3.99636080     0.24578041    -0.57762355    -1.13641775
Si     3.68518446     3.72230999     9.05345852     0.25103092    -1.36694670    -1.27453268
Si     7.50744500     7.23936191    12.91659855    -1.31191313     1.18417847     0.66658545
Si     7.62085793     7.31475256    17.78750807    -1.19979060    -0.46174788    -1.20059061
128
Lattice="12.057 0.000 0.000 0.000 11.885 0.000 0.000 0.000 25.210" Properties=species:S:1:pos:R:3:forces:R:3 energy=-622.19812012 virial="-309.19274902 -1.56902385 0.29296267 -1.56902385 -294.11022949 1.14587271 0.29296267 1.14587271 -367.38919067"
Si     1.58234424     4.48819741     1.47989761    -0.25017595    -0.04916184     0.22127348
Si     6.13495086     8.78101788    12.55939461    -0.26241899    -0.05373206     0.07407808
Si     5.84908938     2.84841224    18.73628461     0.31505916     0.39729542     0.38414475
Si     6.00791885     2.96258555    12.70475962    -0.13488902    -0.21633300     0.01292295
Si    -0.08844554     8.97331426    18.78501497     0.23258561     0.05531179     0.22494815
Si    -0.16834690     9.04707612    12.84836304     0.27606088    -0.02607912    -0.91603738
Si     0.01805469     3.12927934    18.71493396    -0.01455686    -0.03787638     0.05603094
Si    -0.07821985     3.11278725    12.73339463     0.10590860    -0.15059735    -0.21079823
Si     7.56462142     7.57777419    23.53169283     0.00124235    -0.69693536     0.06443693
Si     7.49651287     7.36150532    17.33700881     0.02191266     0.33326161    -0.03104971
Si     7.74734128     1.59203428    23.49773441    -0.52763677    -0.19785890     0.14633833
Si     7.35752645     1.15580070    17.37215783     0.09906697     1.12191546     0.00136807
Si     1.52371985     7.70162531    23.45456220     0.18286484    -0.52800208     0.46364790
Si     1.41767223     7.49572400    17.24669714     0.28783014     0.42029423    -0.34269661
Si     1.65034551     4.71470174    20.15715065    -0.05398339    -0.46668050     0.65736836
Si     1.54008209     1.62361803    23.53506674    -0.15329367    -0.04363774     0.33133411
Si     6.03517435     6.01596153    22.06045700    -0.13919926     0.12690009    -0.09096222
Si     6.13867501     5.95770270    15.56949384    -0.42683810    -0.24942845     0.41236556
Si     6.10315686    11.98569410    22.04385306    -0.37554777    -0.07387310    -0.03097216
Si     5.91448219    11.84990147    15.50326453     0.07927841    -0.07903947     0.91225177
Si     0.23425084     5.91752809    22.06336125    -0.54372644     0.56500375    -0.50711697
Si    -0.15608820     6.17317514    15.51356781    -0.02775858    -0.48657084     0.58847106
Si    -0.03168661    11.93726023    22.06151311     0.09696838     0.25436652    -0.24369773
Si    -0.08907930    12.05074155    15.57304047     0.07693638    -0.03370433     0.68057638
Si     7.36625768    10.26456049    20.44562717     0.64108789     0.44019443    -0.01639721
Si     7.56292026    10.23024653    14.26066968    -0.31422451     0.56030482    -0.26505390
Si     7.33728803     4.44099958    20.33287405     0.51217252     0.16237479     0.11643770
Si     7.58465642     4.22276128    14.28445200    -0.31162995     0.69453293    -0.22593117
Si     1.33345276    10.59379970    20.30369812     0.52885163    -0.20998396     0.33772904
Si     1.40300923     1.50695068    17.22790894     0.06023973     0.70296937     0.06669189
Si     1.55652240    10.52415836    14.13988739    -0.55394822    -0.06882771     0.23619464
Si     5.89057820     8.88819779    18.74943611     0.31034452     0.19256899     0.39685088
Si     8.95314299     5.93432496    18.94273476     0.18577304     0.08400732    -0.39527294
Si     9.07142241     3.14703272    21.75587922     0.12038483    -0.63141805     0.67690980
Si     8.89754030     2.96086132    16.14977850     0.16738683    -0.08160372    -1.22156382
Si     2.98999269     9.29291992    21.89005341    -0.12737145    -0.74398279     0.33141932
Si     2.97606389     8.94958314    15.69463041    -0.04518450     0.27944788    -0.15257800
Si     2.99322020     3.26708455    22.02176362     0.24196520    -0.51845825    -0.11736128
Si     2.81569018     3.15294161    15.81722491     0.44503093    -0.19415966    -0.43381900
Si    10.68805267     7.27841953    20.41299232    -0.48221886     0.65692139     0.08690242
Si    10.15389889     7.43340167    14.02069300     1.33456707     0.11737551     0.61900681
Si    10.60244983     1.52194677    20.31184318    -0.49397594     0.22471274     0.37126017
Si    10.30831270     1.75402734    14.29003369     0.61638516    -0.76016146     0.04024029
Si     4.51347237     7.56955907    20.56089095     0.02087596     0.10741942    -0.63329303
Si     4.46086211     7.44823932    14.03795117     0.32211170    -0.19847733     0.23540840
Si     4.43429577     1.62865042    20.54473464     0.11650626    -0.15251017    -0.36354834
Si     4.56325883     4.57951758    23.71474635    -0.14599754     0.07515207    -0.46946263
Si     4.57980449     4.55544400    17.15582181    -0.21467768    -0.10733065     0.18950880
Si     9.01251774     5.67015393    12.44201163     0.29200625     0.76745307     0.22608547
Si     8.89388683    11.77653420    19.02255676     0.23460571     0.25314087    -0.57247758
Si     9.02453039    11.85539699    12.83296933    -0.10116096     0.22815943    -0.36978722
Si     3.25412544     6.20235423    18.67507756    -0.85310125    -0.46513152     0.41744053
Si     2.87325258     6.06331844    12.47409235     0.49735385     0.04095247     0.50643116
Si     2.94321928    12.05990609    18.86035485    -0.18777767    -0.22204891    -0.15705240
Si     3.02711904    11.96106734    12.54170909    -0.75350344    -0.34948957     0.43987653
Si    10.60599820    10.38222286    23.69515950    -0.00171978     0.18697098    -0.26821458
Si    10.47929350    10.60147208    17.34607642    -0.05986870    -0.86771142    -0.11467470
Si    10.61097907     4.48195866    23.55328658     0.11614463     0.13411590    -0.08285592