ITEM: TIMESTEP
30
ITEM: NUMBER OF ATOMS
64
ITEM: BOX BOUNDS xy xz yz pp pp pp
-2.1577784230499999e-01 1.1187578062354000e+01 -2.1577784230499999e-01
-5.8671844649000000e-02 1.1223192087773000e+01 5.3801181254999997e-02
0.0000000000000000e+00 1.0992593606461000e+01 -5.8671844649000000e-02
ITEM: ATOMS id type x y z fx fy fz
1 1 1.38909 4.02908 1.19867 -0.323727 -0.496505 -0.221335
2 1 1.19253 9.58872 6.70565 -0.0758667 0.38918 -0.5009
3 1 6.98425 3.98281 1.26459 -1.25221 0.279894 -0.269178
4 1 6.94324 3.93188 6.75589 0.937144 1.24307 0.612165
5 1 6.75465 9.64514 1.29832 -0.138251 -0.0242751 -0.244157
6 1 6.76014 9.47806 6.72365 0.390889 0.0343463 0.0519708
7 1 11.0054 11.029 2.64992 -0.32483 -0.958041 -0.112126
8 1 10.9088 10.9933 8.0841 0.293577 -0.656502 0.0585796
9 1 11.054 5.39391 2.45779 0.419512 0.709175 0.436729
10 1 11.0629 5.33701 8.08182 -0.223853 -0.655758 -0.2669
11 1 5.31248 11.0518 2.61109 0.15714 0.0954699 0.0159117
12 1 5.51212 11.0184 8.05668 -0.98645 -1.01428 0.475053
13 1 5.52976 5.46062 2.6023 -1.28724 -0.86275 -0.962897
14 1 1.41165 3.8851 6.70607 -1.07377 0.475154 -0.0278878
15 1 1.26631 9.65148 1.1071 -0.850001 -0.0192763 1.17687
16 1 5.48038 5.41538 8.06816 -0.409585 0.205431 -0.489041
17 1 1.27967 6.88981 3.87849 -0.558226 -0.884891 0.0219534
18 1 1.26338 6.72275 9.39282 -0.104434 0.173784 1.2844
19 1 6.90979 1.12715 4.09163 -0.45844 1.31178 -0.68633
20 1 7.03219 1.08835 9.49816 0.435798 0.399395 0.346823
21 1 6.7595 6.7314 3.9897 1.45094 0.397128 0.866632
22 1 6.75334 6.79039 9.57796 1.17661 -0.476193 -0.884393
23 1 11.1006 2.53761 10.8541 0.145225 0.0552287 0.481685
24 1 11.1139 2.42616 5.29326 -0.272316 1.97542 0.350862
25 1 10.9924 8.26947 10.7681 0.516192 -1.4412 0.38534
26 1 10.9587 8.1814 5.23491 -0.0102175 0.219504 0.855937
27 1 5.6246 2.56157 10.7703 -0.0500331 0.395231 0.177203
28 1 5.59413 2.72094 5.44444 -1.32545 -1.73475 -0.906877
29 1 1.38938 1.30212 3.92099 1.0737 -1.09422 -0.0375552
30 1 1.32916 1.15355 9.45819 0.456344 0.13678 0.412647
31 1 5.44614 8.2805 10.8089 -0.463273 -0.00540903 0.311485
32 1 5.34507 8.09234 5.34187 0.0552531 1.2043 -0.339259
33 1 4.08771 4.02274 3.98782 0.611012 0.57047 0.285181
34 1 3.96139 9.60949 9.41976 0.317523 0.0571143 -0.161618
35 1 9.78976 3.9924 3.83581 -0.345032 -0.575868 1.38242
36 1 9.65704 3.98481 9.57737 0.839866 -0.0787237 -0.657716
37 1 9.47351 9.589 4.02359 0.653056 0.521404 -0.508236
38 1 9.58403 9.54321 9.47011 -0.62111 0.244163 -0.635913
39 1 2.59887 11.0356 10.8538 0.514187 0.363391 -0.830505
40 1 2.59808 11.1392 5.35421 -0.178038 -0.757369 0.213434
41 1 2.76576 5.30789 10.7879 -0.0724056 1.17709 0.00677361
42 1 2.5817 5.45032 5.32087 0.376176 -0.688645 -0.536052
43 1 8.2429 10.9221 10.9329 -0.198087 0.303255 -0.294936
44 1 8.05108 11.0017 5.36469 1.0517 -0.591283 0.721831
45 1 8.295 5.35646 10.8857 -0.530818 0.56654 -0.269814
46 1 4.12657 3.97021 9.38062 0.983675 0.327272 1.14319
47 1 3.95951 9.65151 3.9973 -0.0247138 -0.292498 -0.0865941
48 1 8.37827 5.30264 5.2897 -0.960139 0.340566 -0.0300194
49 1 4.04044 6.93236 1.21407 0.40407 -1.14451 -0.307292
50 1 3.89751 6.83969 6.66095 1.09083 -0.954963 0.819331
51 1 9.78849 1.13369 1.36539 -0.974629 0.934402 -0.613973
52 1 9.79557 1.14231 6.74942 -1.2151 0.188167 -0.174434
53 1 9.59079 6.82788 1.19787 0.0761242 0.698198 0.278767
54 1 9.66075 6.72463 6.69654 0.423583 -0.149665 -0.388624
55 1 2.83153 2.64897 2.55651 -0.581481 0.0144085 0.0339267
56 1 2.7397 2.62539 8.21391 -0.0360231 -1.21076 -1.25297
57 1 2.60432 8.24367 2.51226 0.273345 0.621443 0.368025
58 1 2.51615 8.1212 8.04539 0.814411 1.18155 0.223007
59 1 8.22718 2.63936 2.6946 1.09593 -1.33389 -0.381359
60 1 8.37696 2.59958 8.18136 -0.119407 -0.684769 -0.652231
61 1 4.20351 1.29721 1.17638 -0.12139 -0.682205 0.250643
62 1 4.23711 1.16644 6.85831 -0.416746 0.982313 -0.761907
63 1 8.10662 8.2092 2.64771 0.402032 -0.395323 -0.366071
64 1 8.2652 8.01538 8.04314 -0.852565 1.07252 0.810325
