ITEM: TIMESTEP
350
ITEM: NUMBER OF ATOMS
64
ITEM: BOX BOUNDS xy xz yz pp pp pp
-2.1577784230499999e-01 1.1187578062354000e+01 -2.1577784230499999e-01
-5.8671844649000000e-02 1.1223192087773000e+01 5.3801181254999997e-02
0.0000000000000000e+00 1.0992593606461000e+01 -5.8671844649000000e-02
ITEM: ATOMS id type x y z fx fy fz
1 1 1.19485 4.03144 1.13663 1.66069 -0.224047 -0.0330151
2 1 1.21226 9.58951 6.74712 -0.0931458 0.892889 0.0250674
3 1 6.76508 4.1885 1.01703 0.720967 -0.164622 0.843311
4 1 7.05328 3.90077 6.84297 -0.563431 0.0156431 -1.05845
5 1 6.75552 9.75708 1.37197 0.0724041 0.0678264 -0.211703
6 1 6.92721 9.34603 6.84832 -1.68936 0.835448 -0.233484
7 1 -0.055872 10.8956 2.4753 -0.132421 0.139178 0.937389
8 1 10.9167 11.0541 8.11888 -0.373696 0.124803 -0.534092
9 1 10.7927 5.29783 2.20382 -0.0128729 -0.0706956 1.70262
10 1 11.1142 5.24906 8.18401 -0.0891583 0.258468 -0.725402
11 1 5.27521 11.2463 2.48087 0.432831 -0.459172 0.848918
12 1 5.40671 10.9272 8.16164 0.455334 0.465976 -0.495186
13 1 5.46295 5.48974 2.46984 0.178668 -0.147463 1.42122
14 1 1.26287 3.92398 6.72774 0.630979 -0.791445 0.251919
15 1 1.27235 9.57132 1.10379 0.598549 -0.159173 0.625635
16 1 5.72616 5.19079 8.20132 -0.788221 -0.509081 -0.148521
17 1 1.89769 7.0728 4.57026 0.0504681 0.429494 0.238123
18 1 1.31611 6.72807 9.49756 -0.0846622 0.195542 -0.918639
19 1 6.56078 1.56155 3.90888 0.38455 0.118094 -0.312693
20 1 7.00306 1.18307 9.62341 -0.456844 -0.595528 -0.702113
21 1 6.83412 6.82609 4.04809 -0.326958 -0.359988 -0.489797
22 1 6.97043 6.63634 9.28014 0.511938 0.0541863 0.172711
23 1 11.1095 2.48835 10.8759 -0.128958 0.162016 -0.129007
24 1 -0.0175421 2.56368 5.19026 -0.765007 -0.618118 0.583569
25 1 -0.0481627 8.04908 10.8496 -0.675318 0.920328 -0.101352
26 1 -0.0967701 8.12872 5.30776 0.255743 -0.26841 0.451881
27 1 5.45974 2.63351 10.8184 0.931849 -1.29209 0.701787
28 1 5.30526 2.85268 5.41707 1.40541 -0.152242 -0.275816
29 1 1.45314 0.967671 4.04519 -0.165961 1.57352 -0.559735
30 1 1.35189 1.19822 9.55899 0.0611476 0.109929 -1.50251
31 1 5.27108 8.43609 0.133264 -1.2902 0.502793 -0.40767
32 1 5.34704 8.20467 5.29846 0.312015 0.0176498 0.549568
33 1 4.00962 4.08045 3.89141 0.554905 -0.104624 -0.522855
34 1 3.86297 9.62595 9.5045 1.61213 -0.374528 -0.136924
35 1 9.65956 4.03768 3.86787 0.302884 -0.314004 -0.0647409
36 1 9.7552 3.84151 9.47927 -0.539617 0.539651 0.301869
37 1 9.7389 9.5275 3.88201 -0.174987 -0.207242 0.528384
38 1 9.62211 9.48262 9.43911 0.14602 0.378238 0.85459
39 1 2.55512 11.0872 10.7139 -0.165317 -1.28308 0.67476
40 1 2.78362 11.0361 5.45565 -1.1709 -0.0748603 -0.246615
41 1 2.76013 5.49238 10.8109 -0.355532 -1.78496 0.11096
42 1 2.63182 5.28063 5.32362 -0.414604 -0.943654 0.103718
43 1 8.20298 10.928 10.8849 0.00181311 -0.576695 -0.638075
44 1 8.4667 10.5551 5.56053 -0.437693 0.573887 -0.299866
45 1 8.35472 5.50043 10.6919 0.0213438 -1.18112 0.726979
46 1 4.20182 3.94141 9.57458 -1.13859 1.12084 -1.51209
47 1 4.06904 9.73877 3.90742 0.906254 0.79689 0.437202
48 1 8.29845 5.30313 5.28372 -0.305564 0.242946 0.334048
49 1 4.01259 6.75129 1.25783 -0.0373035 1.88224 0.318903
50 1 3.42912 6.97361 6.26167 0.222839 0.959177 -0.894387
51 1 9.8806 0.967686 1.1452 0.406822 -0.0161443 -0.175717
52 1 9.58348 1.20476 6.65797 2.06793 -0.776582 -0.130214
53 1 9.53197 6.92275 1.28038 -0.459563 -0.00883955 -1.02642
54 1 9.74933 6.52558 6.67001 -0.222503 1.57791 0.671796
55 1 2.65142 2.59775 2.57533 -0.331356 -0.241019 -0.0944705
56 1 2.82526 2.51707 8.14087 -1.03433 0.940886 0.212788
57 1 2.78191 8.29234 2.67447 -0.699797 -0.49847 -0.948177
58 1 2.57662 8.22716 8.06801 0.000514214 -0.497719 0.493637
59 1 8.01179 2.93722 2.63089 -0.799421 0.0686314 0.50873
60 1 8.37421 2.45642 8.16124 -0.497988 0.239906 -0.00234548
61 1 4.02231 1.17611 1.11941 0.267349 1.45313 0.526651
62 1 4.25341 1.33272 6.76537 0.182665 -1.78946 0.575832
63 1 8.12787 8.31882 2.67355 0.212179 -0.637377 -0.0666457
64 1 8.31948 8.022 8.13089 0.852089 -0.535664 -1.13584
