ITEM: TIMESTEP
360
ITEM: NUMBER OF ATOMS
64
ITEM: BOX BOUNDS xy xz yz pp pp pp
-2.1577784230499999e-01 1.1187578062354000e+01 -2.1577784230499999e-01
-5.8671844649000000e-02 1.1223192087773000e+01 5.3801181254999997e-02
0.0000000000000000e+00 1.0992593606461000e+01 -5.8671844649000000e-02
ITEM: ATOMS id type x y z fx fy fz
1 1 1.33479 4.02492 1.1545 0.67966 0.107192 0.144089
2 1 1.2256 9.6589 6.84468 -0.280295 -0.602912 -0.791587
3 1 6.87696 4.23758 1.10159 -0.697448 -0.498495 0.431842
4 1 7.00437 3.79281 6.75785 0.085383 0.348905 1.06538
5 1 6.69724 9.74751 1.32972 0.224381 -0.483923 0.415509
6 1 6.8669 9.40757 6.88553 -0.420596 0.0129359 -0.458853
7 1 -0.0416033 10.9339 2.56463 -0.291501 -0.504928 -0.201268
8 1 10.962 11.0157 8.04718 -0.587686 0.441858 1.19341
9 1 10.7976 5.20091 2.26644 0.553093 0.692156 0.362561
10 1 0.0691672 5.18639 8.10222 -1.77001 0.0903628 -0.436883
11 1 5.50829 0.134499 2.54059 0.670567 -0.358532 -0.101399
12 1 5.40205 10.8895 8.1303 0.602035 0.621626 0.344187
13 1 5.45431 5.48574 2.48683 -0.587177 0.492838 0.165416
14 1 1.23501 3.75368 6.6469 0.620622 0.195653 0.861369
15 1 1.2968 9.58864 1.05974 -0.445241 0.180543 0.877583
16 1 5.66884 5.19898 8.15145 0.0410473 -0.227954 -1.07071
17 1 2.07991 7.2151 4.66922 -2.66041 -1.23409 -2.3255
18 1 1.26786 6.70502 9.37702 0.133914 0.166763 0.529432
19 1 6.64179 1.6173 3.95708 -1.02065 -0.458118 0.804468
20 1 6.99517 1.13898 9.70528 -0.408629 -0.321714 -1.00106
21 1 6.70558 6.78309 4.00841 1.08563 0.138794 0.586608
22 1 7.02703 6.53756 9.24284 0.0862322 0.334032 -0.156266
23 1 11.1481 2.5213 10.9277 0.460901 0.22612 -0.989283
24 1 11.0312 2.38704 5.26558 -0.481278 1.25167 -0.89575
25 1 -0.126484 8.09952 10.7566 0.680829 0.116127 0.377947
26 1 -0.0549413 8.0494 5.42466 -0.0950141 0.748106 0.263228
27 1 5.50995 2.62961 10.9853 0.680593 1.17167 -2.11601
28 1 5.25454 2.95862 5.46451 0.965098 -2.36914 -0.240175
29 1 1.43127 1.10973 3.98834 0.140425 0.119341 0.0904003
30 1 1.48351 1.1868 9.47276 -1.57334 -0.157773 -0.0183134
31 1 5.13722 8.41775 -0.0149769 1.15516 1.56504 0.104238
32 1 5.3231 8.23592 5.37308 0.504352 0.460662 -0.850562
33 1 4.05302 4.05959 3.89657 -0.149725 0.412793 -0.612575
34 1 3.92552 9.51879 9.43889 0.545459 0.848346 -0.218106
35 1 9.67281 4.04941 3.90836 0.201337 -0.984901 0.821233
36 1 9.68427 3.87496 9.53488 1.06335 0.233206 -0.11903
37 1 9.73417 9.48177 3.92943 -0.0785015 -0.281396 0.542668
38 1 9.63235 9.5049 9.48628 -0.633703 0.234707 -0.416349
39 1 2.63811 11.0497 10.7081 0.329243 -0.570507 0.857011
40 1 2.65568 11.0895 5.48902 -0.560057 -0.2184 -1.36147
41 1 2.81713 5.50357 10.7276 -0.793449 -0.601324 0.845658
42 1 2.55595 5.125 5.27517 0.00834713 1.78261 -0.147105
43 1 8.20754 10.9338 10.9631 0.266342 -0.560796 -0.790224
44 1 8.3939 10.6136 5.54136 0.122975 0.0273083 -0.106743
45 1 8.28276 5.44372 10.6485 0.68836 -0.779309 1.34606
46 1 4.1414 4.06735 9.40464 0.280215 -1.07804 1.06615
47 1 4.14657 9.86863 3.90533 -0.304488 -0.498125 0.638635
48 1 8.28501 5.27061 5.35964 -0.765379 0.645861 -0.782381
49 1 4.06201 6.98156 1.1666 -0.801972 -1.65384 1.20871
50 1 3.29914 7.11019 5.96328 1.93364 -1.11479 3.06779
51 1 9.95624 0.995952 1.10974 -0.175261 -0.42661 0.743883
52 1 9.71898 1.16546 6.71508 0.0125465 -1.24548 0.320164
53 1 9.53124 6.85438 1.12684 -0.188838 -0.206531 0.31806
54 1 9.57798 6.56081 6.80033 2.22486 0.0100718 -0.642081
55 1 2.73326 2.55865 2.59258 -0.900844 0.906153 -0.0152279
56 1 2.78111 2.54416 8.1756 0.0587797 0.468703 -1.14454
57 1 2.73197 8.30826 2.59949 0.275164 0.422557 -0.0666713
58 1 2.56436 8.1642 8.08956 0.108586 -0.25327 -1.00771
59 1 7.8779 3.04189 2.81836 1.18911 0.329693 -0.945308
60 1 8.45216 2.40552 8.27019 -1.37324 0.183454 -1.14229
61 1 4.07558 1.3901 1.14565 -0.433363 -1.55267 0.411934
62 1 4.19656 1.15699 6.79845 0.619912 1.08217 0.341179
63 1 8.18123 8.19728 2.66344 -0.458396 0.202208 -0.393944
64 1 8.34044 7.90841 8.07331 -0.361648 1.97133 0.418578
