ITEM: TIMESTEP
560
ITEM: NUMBER OF ATOMS
64
ITEM: BOX BOUNDS xy xz yz pp pp pp
-2.1577784230499999e-01 1.1187578062354000e+01 -2.1577784230499999e-01
-5.8671844649000000e-02 1.1223192087773000e+01 5.3801181254999997e-02
0.0000000000000000e+00 1.0992593606461000e+01 -5.8671844649000000e-02
ITEM: ATOMS id type x y z fx fy fz
1 1 1.30164 3.89587 1.21287 -0.0917671 0.211602 -0.435596
2 1 1.32806 9.49377 6.76755 1.75198 -0.192315 -1.19939
3 1 6.90971 3.96896 1.26593 -0.755031 1.10107 -0.0911335
4 1 6.79333 4.22982 6.84018 0.0055367 -0.55279 -0.454478
5 1 6.73838 9.66363 1.20631 0.972043 -0.0664865 0.599871
6 1 6.85803 9.52513 6.81787 0.351934 -1.23586 0.0902539
7 1 11.0196 10.9896 2.61653 -0.681185 -0.0684093 -0.499244
8 1 11.0229 11.0708 7.99262 -1.14692 -0.581304 0.718974
9 1 10.8076 5.06565 2.37433 -0.411128 0.544189 0.664517
10 1 0.0525464 5.4102 8.18348 -0.36857 -1.37965 0.642542
11 1 5.56565 -0.0890633 2.54705 -0.0258926 -0.203351 -0.637599
12 1 5.43638 10.9089 8.05903 -0.460096 0.930422 0.407373
13 1 5.39546 5.45589 2.52429 0.757764 0.465714 -0.614264
14 1 1.28275 3.9901 6.67965 0.510644 0.280524 0.510215
15 1 1.3337 9.64322 1.33896 -0.0843665 -0.590713 0.264584
16 1 5.31733 5.37853 8.1738 0.645878 -0.358629 0.211201
17 1 1.73763 7.03779 4.53541 -1.28463 0.714465 -1.19239
18 1 1.40017 6.7451 9.58539 -0.0683574 -1.29652 -0.666569
19 1 6.52131 1.47284 3.93231 0.601922 0.0437169 -0.278226
20 1 6.95455 1.10384 9.52874 0.320094 0.911173 -0.59168
21 1 6.79094 6.78855 3.89785 -0.205713 0.831215 0.164566
22 1 6.97899 6.30925 9.39873 0.791181 0.545787 -0.774226
23 1 0.0739745 2.54333 10.7472 -0.0875372 -0.855083 -0.0221588
24 1 11.1603 2.63162 5.27428 -1.13748 -0.63814 -0.156636
25 1 0.30416 7.84177 0.267589 -1.3395 0.790952 0.382085
26 1 0.159879 8.27104 5.5341 1.11768 -1.48339 -0.202345
27 1 5.64211 2.60692 10.9028 -1.12628 -1.28027 -0.907205
28 1 5.3865 2.85271 5.32094 -0.430904 -0.00596471 0.683371
29 1 1.41076 1.21786 3.87015 0.00365278 0.201619 1.06282
30 1 1.46601 1.14501 9.40159 -0.221313 -0.0200836 0.387416
31 1 5.20358 8.3452 -0.0030873 0.121558 0.734616 0.131863
32 1 5.48421 8.33297 5.26073 0.950326 -0.0257862 -0.489781
33 1 3.98156 4.19349 3.79308 0.176581 -1.11405 0.989873
34 1 4.04375 9.59241 9.46463 -0.616274 -0.463653 -0.382269
35 1 9.53131 3.89035 3.98871 -0.0271938 0.460751 0.322614
36 1 9.74666 3.90506 9.4973 0.0219886 0.014227 -0.793585
37 1 9.65287 9.64133 4.01314 0.147023 -0.906814 -0.372142
38 1 9.30739 9.69993 9.19421 1.4199 0.0163512 0.153965
39 1 2.61236 10.9401 10.8173 0.0100577 -0.0542515 -0.616909
40 1 2.57687 11.0815 5.33925 0.685498 -0.00996177 0.129902
41 1 2.67497 5.26011 -0.197937 0.435295 0.935909 0.659273
42 1 2.74474 5.35719 5.38048 -0.363089 -0.861816 0.295236
43 1 8.23306 10.9643 10.751 -1.47152 -0.797461 0.0517067
44 1 8.3184 10.7489 5.51977 0.633998 0.556402 0.21901
45 1 8.40935 5.2063 10.8906 -0.408138 0.294037 0.00129932
46 1 4.11225 3.79551 9.45133 0.612329 0.867422 0.28562
47 1 4.1508 9.71442 3.95267 -0.308667 0.844589 0.00458071
48 1 8.13992 5.49924 5.29444 0.769029 -1.12 -0.133578
49 1 3.95269 6.86534 1.24103 0.382697 -1.24617 -0.12866
50 1 3.03713 7.40543 6.02708 -3.47033 2.31081 2.40291
51 1 9.98421 0.894234 0.870228 1.07907 0.159986 0.690024
52 1 9.78701 1.1934 6.7551 -0.404162 0.625811 -0.747539
53 1 9.56857 6.77421 1.22248 0.408226 -0.139527 0.387123
54 1 9.96397 6.76131 6.84892 -1.47651 1.159 -0.462875
55 1 2.72369 2.61422 2.51687 0.22622 -0.30453 0.0566934
56 1 2.70314 2.5825 8.03876 0.347005 -0.297265 -0.0526703
57 1 2.7375 8.23163 2.7154 -0.0386749 0.580524 -0.109662
58 1 2.37888 8.21708 8.12382 1.75283 0.450303 -0.335907
59 1 8.03856 2.64846 2.68257 0.295351 0.175407 1.10217
60 1 8.22439 2.67888 8.04347 0.737487 -1.20287 0.166971
61 1 4.09052 1.16757 1.12042 0.72149 0.832054 0.692665
62 1 4.23907 1.23257 6.82967 -0.444239 0.031069 -1.16667
63 1 8.23188 8.21012 2.65144 -0.209973 0.43008 -0.573107
64 1 8.27631 7.95221 8.12142 -0.598814 0.301317 -0.444802
