ITEM: TIMESTEP
590
ITEM: NUMBER OF ATOMS
64
ITEM: BOX BOUNDS xy xz yz pp pp pp
-2.1577784230499999e-01 1.1187578062354000e+01 -2.1577784230499999e-01
-5.8671844649000000e-02 1.1223192087773000e+01 5.3801181254999997e-02
0.0000000000000000e+00 1.0992593606461000e+01 -5.8671844649000000e-02
ITEM: ATOMS id type x y z fx fy fz
1 1 1.26698 4.04592 1.14295 -0.0780343 0.0605569 1.13278
2 1 2.37822 8.84351 5.63368 0.0929495 -1.30537 2.12505
3 1 6.66695 3.9363 1.26006 0.911623 1.27993 0.27824
4 1 6.79062 3.87365 6.83782 0.647193 0.419434 -0.622092
5 1 6.8465 9.5728 1.30849 -0.918937 0.431908 -1.40391
6 1 6.94227 9.54716 6.97052 -0.367664 0.155164 -1.57505
7 1 -0.0338642 11.0813 2.64094 -1.06978 -0.969706 -1.00701
8 1 10.8391 0.210835 7.99859 0.975238 -1.69961 0.451328
9 1 10.7789 5.28386 2.56943 0.967731 -0.185398 -0.525617
10 1 10.9354 5.12201 8.20471 -0.0269734 0.692978 0.200139
11 1 5.41965 11.1034 2.39488 -1.13381 -0.203903 0.281169
12 1 5.34901 10.9961 8.03763 0.197011 -0.179392 0.715627
13 1 5.40446 5.46705 2.74997 -0.652573 -0.912323 -1.0129
14 1 1.4902 4.06794 6.77552 -0.596253 -0.891406 0.386897
15 1 1.28236 9.58963 1.31664 0.0399874 0.0130064 -0.39794
16 1 5.62851 5.3817 8.13646 -0.747461 0.199409 -0.321538
17 1 1.90731 7.6384 4.33524 0.0986522 -0.584524 -1.8983
18 1 1.30239 6.6791 9.52384 0.0987742 0.418468 -1.34383
19 1 6.60062 1.38682 3.74999 1.0031 1.577 0.630015
20 1 6.92604 1.21134 9.50334 0.0183695 -0.983065 -1.15228
21 1 6.77876 6.823 3.9239 0.211173 0.760908 1.30382
22 1 7.28531 6.57912 9.26048 -0.629065 -0.482566 -0.0610032
23 1 11.1445 2.58563 10.7739 0.386861 -1.19085 0.0670888
24 1 0.116492 2.6691 5.44516 -0.436255 0.0777653 -1.40236
25 1 -0.0306806 7.92002 0.169568 0.770892 0.222426 0.542076
26 1 0.440286 7.08589 5.9417 -0.363375 5.59803 -0.700877
27 1 5.49755 2.42764 10.7995 -0.249716 1.5918 0.143128
28 1 5.48068 2.69563 5.36751 0.058326 -1.16491 0.220516
29 1 1.46557 1.17892 3.98656 0.0484242 0.44122 0.784849
30 1 1.41828 1.21577 9.41176 -0.472542 0.306556 -0.660033
31 1 5.23552 8.27871 10.9681 0.523662 0.47989 0.405339
32 1 5.64511 8.52663 5.27368 0.827112 -1.32612 0.498296
33 1 4.16564 3.88592 4.02367 -0.925246 0.568634 -1.25039
34 1 4.04046 9.57242 9.48849 -0.681581 0.565428 -1.03619
35 1 9.59984 4.00576 4.06869 0.823262 -0.686297 0.280136
36 1 9.52786 3.68709 9.58866 0.349485 1.41724 0.185191
37 1 9.3681 9.87202 3.59141 0.639882 -0.189717 1.18011
38 1 9.48683 9.6489 9.35701 0.0759169 1.52602 -0.872337
39 1 2.48948 10.9632 10.7001 0.574118 -0.760449 0.271715
40 1 2.91917 11.0758 5.13663 -1.72924 0.349087 1.28857
41 1 2.77009 5.38787 10.8122 0.588279 -0.269014 0.355771
42 1 2.26206 6.17769 5.76858 3.93871 1.4359 1.01442
43 1 7.98061 10.8694 10.6679 1.20901 -0.213929 0.918157
44 1 8.52461 10.8212 5.58471 -0.0576725 -1.41515 -0.0751511
45 1 8.31299 5.29605 10.8911 -0.345952 -0.708634 0.26714
46 1 4.22212 4.02588 9.47593 0.0421911 0.111246 0.03462
47 1 4.09025 9.67707 4.106 -3.30659 -3.48814 -0.237375
48 1 7.96095 5.17149 5.21227 0.356255 0.663015 0.464522
49 1 4.14452 6.80345 1.25935 -0.85697 -0.563819 -0.0091008
50 1 2.0665 7.25307 6.9014 2.57829 1.67815 0.98085
51 1 9.95795 0.729845 0.79407 0.277259 0.534352 0.636669
52 1 9.65803 1.36686 6.55065 0.379422 0.294537 -0.118385
53 1 9.46076 6.7942 1.37137 0.959077 -1.04795 -0.908663
54 1 9.5284 6.65203 6.84522 0.917623 -1.22278 0.201217
55 1 2.68795 2.60542 2.5511 0.0713106 0.70587 0.135461
56 1 2.90262 2.60517 8.14399 -0.516158 0.225553 -0.494712
57 1 3.01832 8.4192 2.48838 -0.525618 0.569395 2.21422
58 1 2.43404 8.17846 7.97307 -2.02692 -1.52954 -2.74422
59 1 8.17694 2.84756 2.74036 -0.882563 -0.736019 -0.214929
60 1 8.34624 2.47048 8.03051 -0.893722 0.142186 0.486426
61 1 4.03266 1.25036 1.12624 -0.138899 -1.05507 0.0303931
62 1 4.22421 1.22057 6.72436 -0.209887 -0.526977 -0.0317378
63 1 8.15192 8.18274 2.54811 -0.104378 0.455965 0.837354
64 1 8.4084 8.10672 8.06475 -0.713345 0.523601 0.128614
