ITEM: TIMESTEP
80
ITEM: NUMBER OF ATOMS
64
ITEM: BOX BOUNDS xy xz yz pp pp pp
-2.1577784230499999e-01 1.1187578062354000e+01 -2.1577784230499999e-01
-5.8671844649000000e-02 1.1223192087773000e+01 5.3801181254999997e-02
0.0000000000000000e+00 1.0992593606461000e+01 -5.8671844649000000e-02
ITEM: ATOMS id type x y z fx fy fz
1 1 1.15305 3.91241 1.3551 0.925837 0.912631 -1.0501
2 1 1.30901 9.55004 6.84168 -0.0235936 0.150136 -0.882274
3 1 6.83851 4.06877 1.1365 0.0749268 -0.989829 0.712511
4 1 6.84578 3.96755 6.67341 -0.384744 -0.395454 -0.144613
5 1 6.84693 9.59445 1.10802 -0.0245339 0.297582 0.780792
6 1 6.85458 9.74286 6.71196 -0.229867 -0.537515 0.239548
7 1 10.9806 10.9935 2.61535 -0.868486 0.613403 -0.216291
8 1 11.0531 10.9533 8.14208 -0.254677 0.842542 -0.789285
9 1 11.0898 5.45272 2.70175 -1.34157 -0.883452 -0.849274
10 1 11.0161 5.46666 8.06887 0.827838 0.146132 -0.19391
11 1 5.3641 10.9161 2.4776 -0.0593304 0.193958 0.41984
12 1 5.30785 11.0126 8.09086 0.257574 0.478546 -0.533069
13 1 5.47327 5.32211 2.5739 0.0524873 0.862753 0.639237
14 1 1.34586 4.01704 6.74752 0.137118 0.0861141 0.124863
15 1 1.17865 9.56644 1.29609 0.358309 0.0160231 -0.432056
16 1 5.42114 5.38402 8.13451 1.20139 -0.219475 0.300318
17 1 1.27922 6.71503 4.05124 0.621812 1.30649 0.5579
18 1 1.3002 6.7596 9.58036 0.221093 -0.460907 -0.789238
19 1 6.98064 1.18875 3.73914 0.40566 -0.809277 1.04614
20 1 6.89167 1.27202 9.43878 0.0321882 -0.438354 0.205642
21 1 6.88273 6.8324 3.97029 -0.614123 -0.421422 -0.40684
22 1 7.00452 6.75615 9.57463 -1.69856 0.289472 -0.87881
23 1 11.1443 2.59952 10.7394 -0.47228 -0.0688972 0.288485
24 1 11.0807 2.66003 5.35648 0.0527553 -0.446163 0.62251
25 1 11.0501 8.15362 10.8241 -0.741539 0.546101 0.150197
26 1 11.0188 8.21071 5.45704 0.120979 0.313182 -1.08423
27 1 5.41601 2.60715 10.8759 0.610801 -0.634674 -0.168697
28 1 5.56508 2.3714 5.17883 -0.0352941 2.16857 0.580643
29 1 1.26361 1.32726 3.92856 -0.0353629 -1.31905 0.767667
30 1 1.48622 1.15325 9.47506 -0.469073 -0.234063 0.481477
31 1 5.4668 8.14734 10.9357 0.0309719 -0.477356 -1.07345
32 1 5.51009 8.23262 5.37626 -0.0676763 0.0243053 -0.0405295
33 1 4.08383 3.96284 3.97576 0.221566 -0.486904 -0.130514
34 1 4.06604 9.51805 9.4636 -0.301849 0.270952 0.724747
35 1 9.68144 3.94077 4.00865 -0.637391 1.26759 -0.0996454
36 1 9.73078 4.09112 9.39137 -0.433225 -1.4024 0.250455
37 1 9.58881 9.63966 3.9824 -0.00859148 -0.896824 0.0472074
38 1 9.64345 9.69203 9.43773 -0.0863222 -1.01498 0.929213
39 1 2.59962 10.9396 10.9158 0.0753101 -0.458865 -0.779038
40 1 2.41155 11.0292 5.19796 1.47042 -0.322324 0.953082
41 1 2.64028 5.26079 10.9178 0.108881 0.316092 0.142712
42 1 2.8073 5.41619 5.39736 -0.578526 -0.451408 -0.162217
43 1 8.17858 11.0539 10.7539 -0.156569 0.284119 0.189014
44 1 8.25353 11.1158 5.30918 -0.945088 -0.295758 -0.515772
45 1 8.28863 5.27486 10.8104 0.533603 0.527389 -0.0168972
46 1 4.04374 3.9427 9.49492 0.173029 0.338277 -0.0485458
47 1 4.03565 9.49669 3.96872 -0.43036 1.02805 0.0838427
48 1 8.184 5.41126 5.33898 0.806555 -0.178579 0.0386469
49 1 4.07182 6.72949 1.24916 -0.602972 0.215121 0.128588
50 1 4.1538 6.80404 6.77095 -0.0456465 0.0906437 -0.343006
51 1 9.65529 1.35762 1.19949 0.885729 -1.42092 -0.930493
52 1 9.76806 1.18561 6.78283 0.531134 0.144204 -0.111682
53 1 9.64698 6.70116 1.13097 0.037784 0.604413 1.01049
54 1 9.61792 6.84614 6.70289 -0.831489 -0.0656971 0.709962
55 1 2.5983 2.56606 2.59968 1.22606 0.690143 -0.00925604
56 1 2.7672 2.53337 8.10027 -0.104765 0.622251 -0.625943
57 1 2.60902 8.1662 2.60615 0.288025 -0.527128 0.190027
58 1 2.70633 8.05333 8.14497 -0.15697 0.788652 0.11445
59 1 8.33509 2.66799 2.50467 -0.882185 0.607439 0.326007
60 1 8.31338 2.62438 8.0369 -0.11512 0.130037 0.297042
61 1 4.0376 1.17337 1.29213 0.728923 0.12611 -0.261416
62 1 4.14417 1.28049 6.6313 -0.361055 -1.73529 0.256682
63 1 8.21166 8.13822 2.5043 0.58677 0.70919 0.435154
64 1 8.19988 8.29302 8.19324 0.393307 -0.415632 -1.178
