ITEM: TIMESTEP
10
ITEM: NUMBER OF ATOMS
64
ITEM: BOX BOUNDS xy xz yz pp pp pp
-2.1577784230499999e-01 1.1187578062354000e+01 -2.1577784230499999e-01
-5.8671844649000000e-02 1.1223192087773000e+01 5.3801181254999997e-02
0.0000000000000000e+00 1.0992593606461000e+01 -5.8671844649000000e-02
ITEM: ATOMS id type x y z fx fy fz
1 1 1.21767 4.12954 1.32656 0.901141 -1.12658 -1.23146
2 1 1.2176 9.59016 6.79264 0.445368 -0.371364 -0.165389
3 1 6.91466 3.90336 1.16533 -1.31807 0.773778 0.837434
4 1 6.8736 4.05031 6.80084 1.24176 -0.858678 -0.69396
5 1 6.8138 9.69085 1.25675 -0.33217 -0.98283 -0.177107
6 1 6.74374 9.59131 6.66809 0.950511 -0.287148 1.17453
7 1 10.8165 11.1147 2.55636 0.763508 -1.08677 0.778721
8 1 10.9081 10.9603 8.0588 0.959759 -0.00566658 0.806797
9 1 11.0126 5.48435 2.5191 0.150865 1.09293 2.01697
10 1 10.979 5.29074 8.01355 1.28659 0.392715 1.27968
11 1 5.27238 10.9641 2.47739 -0.0112451 0.716613 1.50234
12 1 5.44576 10.9166 8.12793 -0.351346 1.43999 -0.927582
13 1 5.55662 5.36089 2.62609 -0.535141 0.56342 -0.590176
14 1 1.39297 3.93108 6.69503 -0.27123 0.806748 -0.423712
15 1 1.08323 9.57237 1.21022 0.511073 0.691095 -0.478201
16 1 5.5663 5.45074 8.14215 -1.65507 -1.36669 0.808039
17 1 1.36254 6.91041 4.04353 -1.41904 -1.47876 -1.11336
18 1 1.38461 6.70174 9.50582 -1.85186 0.202563 -0.46678
19 1 6.89839 1.11993 4.03947 0.677846 -0.371864 -1.12219
20 1 6.99744 1.09001 9.48839 -1.071 1.2271 -0.134781
21 1 6.85067 6.9251 3.98719 -0.333535 -0.67063 0.555585
22 1 6.98571 6.72366 9.48988 -1.1074 1.06353 0.170862
23 1 11.066 2.63639 10.847 1.51818 -0.378394 -0.24146
24 1 11.0038 2.57206 5.41161 1.46128 -0.20452 -1.55604
25 1 10.8661 8.22301 10.714 0.842328 -0.800692 0.386537
26 1 11.0178 8.26966 5.32429 0.696479 -0.531767 0.408813
27 1 5.49678 2.51853 10.8958 0.700017 0.0158115 -1.30075
28 1 5.59361 2.59668 5.26525 0.174295 0.429301 0.839065
29 1 1.48117 1.07699 4.04455 -1.48188 1.06659 -0.147072
30 1 1.38059 1.21362 9.35186 0.706044 -0.442125 1.14031
31 1 5.41109 8.19482 10.821 1.76616 0.20012 -0.431571
32 1 5.3372 8.32545 5.42282 1.01947 -1.36722 -1.36979
33 1 4.14675 3.87421 3.94096 -0.609992 0.958325 -0.596655
34 1 4.06234 9.61155 9.43673 -0.386436 -1.26543 -0.218271
35 1 9.66011 4.09288 3.92732 0.0872221 -0.968915 0.41376
36 1 9.64194 3.88919 9.57202 0.257435 1.43033 -1.06842
37 1 9.57209 9.54444 4.07403 0.430159 1.58578 -1.01475
38 1 9.45 9.70514 9.38401 0.246206 -1.20999 0.575003
39 1 2.67455 10.885 10.747 -1.98238 1.25122 0.534242
40 1 2.68389 10.9006 5.43116 -0.519778 1.09699 -0.0909648
41 1 2.75329 5.39312 10.9526 -0.229611 -0.552733 -0.635642
42 1 2.77131 5.42658 5.24504 0.327183 -0.284436 1.23453
43 1 8.09743 11.0729 10.8645 1.11039 -0.628683 0.19287
44 1 8.17603 10.9031 5.40585 -0.13769 1.20081 -0.403296
45 1 8.18265 5.297 10.8781 1.34205 0.570578 0.027286
46 1 4.0261 3.88463 9.54063 1.71434 1.72799 -0.778661
47 1 3.95338 9.5402 4.03051 -0.0127063 0.471224 -1.60544
48 1 8.33505 5.44914 5.3402 -1.17706 -0.203924 -0.0828583
49 1 4.13084 6.86836 1.18357 -0.28377 -1.0734 1.15367
50 1 4.1784 6.87388 6.78509 -0.991199 -1.61295 -0.675205
51 1 9.72138 1.31989 1.18155 -0.860047 -0.58042 0.872922
52 1 9.84288 1.0782 6.79567 -1.68578 1.0454 -0.850235
53 1 9.53091 6.83079 1.28103 0.204062 0.150726 -1.03058
54 1 9.72295 6.7909 6.63897 -0.0191326 -0.0655354 0.585448
55 1 2.62917 2.57092 2.47446 0.280673 0.237511 1.43225
56 1 2.88022 2.59638 7.96019 -1.09035 -0.322406 0.727708
57 1 2.5838 8.13606 2.51734 0.532287 1.16667 0.295395
58 1 2.65852 8.09564 8.06487 -0.104602 0.836687 0.603067
59 1 8.18745 2.65232 2.61055 1.30939 -0.866379 0.347659
60 1 8.39095 2.53365 8.1666 -0.999868 -0.0144953 -1.06985
61 1 4.06443 1.26317 1.16697 0.00944614 -1.40706 0.359285
62 1 4.31354 1.27399 6.66415 -0.271408 -1.91164 0.920096
63 1 8.27811 8.28141 2.67349 -1.16395 -0.222916 -0.918217
64 1 8.24419 8.0785 7.96705 -0.358745 1.11048 0.629544
