ITEM: TIMESTEP
1000
ITEM: NUMBER OF ATOMS
64
ITEM: BOX BOUNDS xy xz yz pp pp pp
-2.1577784230499999e-01 1.1187578062354000e+01 -2.1577784230499999e-01
-5.8671844649000000e-02 1.1223192087773000e+01 5.3801181254999997e-02
0.0000000000000000e+00 1.0992593606461000e+01 -5.8671844649000000e-02
ITEM: ATOMS id type x y z fx fy fz
1 1 1.37473 4.19757 1.27367 0.21453 -1.32653 1.01579
2 1 1.1749 9.60029 6.53952 -0.476949 -0.656479 2.56693
3 1 6.94101 3.83658 1.04673 0.106413 1.24656 1.53012
4 1 7.04981 4.04345 6.64376 -1.34956 -1.43114 0.941986
5 1 6.75507 9.63925 1.21846 0.69327 -0.0515089 1.23408
6 1 6.84126 9.5625 6.62071 0.503186 -0.198202 0.596472
7 1 10.9535 11.0904 2.49927 -0.66029 -1.53235 -0.466862
8 1 11.0166 10.9136 8.11403 -0.628877 0.802408 0.279406
9 1 11.0594 5.53174 2.74807 0.294578 0.0968787 -1.59387
10 1 10.9565 5.28998 7.95443 0.315371 0.351357 0.655478
11 1 5.38186 10.9111 2.66368 -0.310254 0.904325 0.00319861
12 1 5.4493 10.9272 7.84644 -0.981089 0.718038 1.51135
13 1 5.62464 5.40154 2.42346 -0.517084 -0.82973 1.12115
14 1 1.35451 3.84711 6.74764 -0.485456 0.532973 -0.763863
15 1 1.2683 9.5122 1.33262 -0.560247 0.300118 -0.752129
16 1 5.51621 5.32772 8.02061 0.425957 0.219937 0.849304
17 1 1.47396 6.95237 3.97069 -1.24751 -1.28824 0.410069
18 1 1.09943 6.67688 9.48282 0.783299 0.872588 -0.12734
19 1 6.85079 1.29181 3.8982 0.90263 -0.741468 0.602778
20 1 6.75948 1.13222 9.43704 0.562042 -0.0585068 -0.0587852
21 1 6.7132 6.89841 3.88686 1.19537 -0.311149 0.98594
22 1 6.92504 6.71648 9.44766 0.0700943 0.710332 -0.343385
23 1 11.3432 2.63557 10.9154 -1.15002 -0.203768 -0.497597
24 1 10.9036 2.47454 5.39047 0.817236 1.24011 -0.387763
25 1 10.8907 8.1732 10.9576 0.857318 0.276906 -1.13854
26 1 10.9684 8.24163 5.24339 0.426756 -0.343174 0.19502
27 1 5.45504 2.52574 10.9028 0.294803 -1.32474 0.00949039
28 1 5.47566 2.60231 5.34704 0.593354 0.344837 0.0599428
29 1 1.17369 1.14745 3.89049 1.16226 1.57337 1.15271
30 1 1.4858 1.11148 9.59118 0.389962 0.0804624 -0.867622
31 1 5.56513 8.28275 10.8175 -0.562448 -2.02915 -0.53902
32 1 5.39918 8.15808 5.52493 -1.0823 -0.0297578 -1.86546
33 1 4.18478 4.09138 4.00267 -0.157151 -0.999856 -1.24003
34 1 4.21314 9.58165 9.36393 -2.23995 -0.587296 0.194202
35 1 9.64076 4.16934 4.01665 0.21075 -2.52534 -1.00584
36 1 9.7394 3.92176 9.56343 0.249532 -0.773365 -1.41202
37 1 9.66082 9.65913 3.91792 -1.04471 0.981997 0.637328
38 1 9.4969 9.70801 9.57448 0.656592 -1.20069 -0.676973
39 1 2.65643 10.7916 10.9056 0.3537 0.728053 -0.970922
40 1 2.30095 10.9971 5.26848 2.73145 1.60497 0.172615
41 1 2.75841 5.41952 10.8169 0.0325706 0.463583 0.11538
42 1 2.73532 5.353 5.3277 -0.546539 0.559905 0.748093
43 1 7.97022 11.0181 10.8396 1.52874 0.709446 -0.178897
44 1 8.09245 11.0438 5.33965 0.722838 0.132775 -1.35549
45 1 8.334 5.26898 10.7977 -0.452078 0.65954 0.0163262
46 1 4.30953 4.02056 9.66324 -1.95844 -0.0799904 -2.3624
47 1 3.93659 9.66405 4.08733 1.24778 -0.381667 0.454285
48 1 8.22632 5.44843 5.25397 -0.23911 1.65136 0.445198
49 1 4.19366 6.77822 1.23021 -0.782785 1.17166 -0.753001
50 1 3.97883 6.77356 6.89761 0.118954 -0.337305 -0.88592
51 1 9.81479 1.19393 1.10636 -1.13135 0.389612 0.343145
52 1 9.64527 1.0962 6.84275 0.499386 -0.0672639 -0.18002
53 1 9.532 6.79016 1.18738 0.10374 0.10472 1.77546
54 1 9.62025 6.94082 6.70271 0.253812 -1.6896 -0.784953
55 1 2.71725 2.51318 2.6374 0.320677 1.52734 -0.0705313
56 1 2.83066 2.64312 8.14977 0.232001 -0.801377 0.722144
57 1 2.83612 8.27809 2.60883 -0.609109 -1.03279 -0.285581
58 1 2.485 8.20875 8.09307 0.846965 0.107586 0.471967
59 1 8.3249 2.59044 2.47717 0.872715 0.54137 1.24977
60 1 8.23257 2.45151 8.18023 0.68833 1.46739 -0.278723
61 1 4.15216 1.03417 1.29032 -0.238317 0.744599 0.0413852
62 1 4.12151 1.13112 6.7117 -0.901548 0.0404159 -0.66984
63 1 8.25319 8.34397 2.69897 -1.05515 -1.25836 -1.70364
64 1 8.29861 8.23647 8.04067 -0.910651 0.233285 1.10853
