ITEM: TIMESTEP
150
ITEM: NUMBER OF ATOMS
64
ITEM: BOX BOUNDS xy xz yz pp pp pp
-2.1577784230499999e-01 1.1187578062354000e+01 -2.1577784230499999e-01
-5.8671844649000000e-02 1.1223192087773000e+01 5.3801181254999997e-02
0.0000000000000000e+00 1.0992593606461000e+01 -5.8671844649000000e-02
ITEM: ATOMS id type x y z fx fy fz
1 1 1.33231 4.03638 1.28566 -0.373028 -0.163492 -1.95566
2 1 1.2097 9.49049 6.81215 0.433894 1.29351 -1.12686
3 1 7.01664 3.98225 1.18931 -1.84422 0.542561 0.2498
4 1 6.91797 4.01563 6.74548 0.481592 -1.18228 -0.62314
5 1 6.74049 9.55824 1.20865 0.96057 -0.31927 -0.0922984
6 1 6.86164 9.65184 6.74654 -0.148022 -0.962499 0.202438
7 1 10.8391 11.1246 2.45339 0.499071 -0.993127 1.6036
8 1 10.9202 10.9478 8.19335 -0.0305772 0.287266 -1.8499
9 1 11.044 5.48289 2.39933 0.137099 1.02819 2.65487
10 1 11.0775 5.33558 8.10212 0.234781 0.425134 -0.579475
11 1 5.43753 10.9093 2.46825 -1.60616 2.50661 0.199954
12 1 5.29544 10.9798 8.11287 0.84268 -0.513737 -0.0556151
13 1 5.57583 5.45802 2.73415 -1.40285 -1.41633 -2.6201
14 1 1.32511 4.05733 6.65837 1.17368 -0.995987 0.47634
15 1 1.21316 9.70435 1.28676 -0.952755 -0.451221 -1.0284
16 1 5.68082 5.36747 8.00557 -2.74016 -0.00860331 1.62259
17 1 1.41775 6.93163 4.05181 -2.24149 -1.2081 -1.70792
18 1 1.30885 6.79604 9.34925 -0.688266 -0.469379 1.69972
19 1 6.81311 1.17574 4.0073 0.838713 -0.442427 -0.538657
20 1 7.02647 1.06479 9.38221 -0.655583 0.944378 0.729653
21 1 6.86632 6.81774 3.98013 0.427912 0.961439 0.467843
22 1 6.79197 6.82989 9.42462 -0.121018 0.0603243 0.542694
23 1 11.0968 2.44827 10.8489 -0.341889 1.06847 0.304723
24 1 11.0428 2.60713 5.38054 0.847727 -0.330597 0.0591745
25 1 11.003 8.2617 10.7839 0.491335 -0.614805 0.370795
26 1 10.9127 8.2025 5.37575 0.307881 -0.628684 0.294736
27 1 5.49142 2.48782 10.7525 1.48204 -0.0698549 1.39853
28 1 5.63071 2.54393 5.42638 -0.822473 0.397644 -0.215677
29 1 1.27593 1.16905 3.96866 0.948282 -0.101834 0.681111
30 1 1.41725 1.03262 9.42907 -0.120244 1.73186 -0.0679678
31 1 5.41335 8.09202 10.959 0.666106 0.705349 -1.60274
32 1 5.44571 8.18938 5.35526 0.203255 0.382771 0.0564275
33 1 4.21134 3.82374 4.01019 -0.829286 1.35624 -0.496991
34 1 4.05646 9.55338 9.65041 -0.732244 -1.17733 -2.41061
35 1 9.77365 4.02025 4.0447 -0.886108 0.946526 -1.07933
36 1 9.71637 4.07165 9.44912 -0.396633 -1.22679 1.15943
37 1 9.60773 9.70191 4.04678 -0.163166 -0.488729 -1.05971
38 1 9.56961 9.63383 9.47981 -0.179506 -0.665565 0.542282
39 1 2.50034 10.8725 10.6827 0.803144 0.595784 1.91433
40 1 2.70365 10.985 5.3474 -1.22031 -0.237138 -0.336531
41 1 2.75001 5.3556 10.7299 0.086418 0.25401 1.04745
42 1 2.80114 5.44819 5.26901 0.0211407 -0.912454 0.552842
43 1 8.10508 10.9048 10.8595 0.317022 0.743123 -0.16486
44 1 8.12513 11.0752 5.24732 0.165671 -0.217052 1.34902
45 1 8.21614 5.57536 10.7638 0.399947 -2.11501 0.236286
46 1 4.20461 3.91215 9.48508 -0.0348979 1.05084 -1.1696
47 1 4.15344 9.59111 3.82824 -1.36153 -0.0731012 1.76184
48 1 8.10283 5.35168 5.29008 2.26954 0.40002 0.462436
49 1 4.06415 6.88964 1.26277 -0.892709 -2.23729 0.57242
50 1 4.1158 6.77856 6.79716 0.303518 -0.329084 -0.874249
51 1 9.50817 1.20138 1.38919 0.524163 0.782482 -1.66267
52 1 9.75742 1.18203 6.77445 -0.29121 -0.0844719 -0.368033
53 1 9.49459 6.94068 1.11464 1.3714 -0.252054 0.893582
54 1 9.55014 6.59836 6.7647 0.680935 1.54222 -0.627362
55 1 2.58137 2.61953 2.58315 1.43966 -0.457091 0.725821
56 1 2.83687 2.51518 8.04687 -1.29355 0.95091 -0.00923285
57 1 2.60682 8.31502 2.54146 0.472392 -0.417827 0.479548
58 1 2.63026 8.09562 8.06095 1.73608 1.58626 0.944661
59 1 8.20257 2.6637 2.83703 0.944155 -0.314037 -1.82116
60 1 8.34144 2.6256 8.0432 0.180875 -0.331344 0.72755
61 1 3.96004 1.15364 1.18859 1.54129 -0.332105 0.198813
62 1 4.28482 1.23778 6.72611 -1.0727 -1.20672 0.16446
63 1 8.23005 8.26541 2.6071 -0.127671 0.0917948 0.39185
64 1 8.28906 8.10276 8.19288 -0.663706 1.31171 -1.59487
