ITEM: TIMESTEP
330
ITEM: NUMBER OF ATOMS
64
ITEM: BOX BOUNDS xy xz yz pp pp pp
-2.1577784230499999e-01 1.1187578062354000e+01 -2.1577784230499999e-01
-5.8671844649000000e-02 1.1223192087773000e+01 5.3801181254999997e-02
0.0000000000000000e+00 1.0992593606461000e+01 -5.8671844649000000e-02
ITEM: ATOMS id type x y z fx fy fz
1 1 1.22765 3.99873 1.44094 0.100866 0.362076 -1.38015
2 1 1.29617 9.55714 6.89831 1.8189 -0.781103 0.370042
3 1 6.87366 4.04677 1.31522 -1.22331 -1.11238 0.0967879
4 1 6.86977 3.95307 6.64944 1.08113 0.184974 1.0793
5 1 6.74313 9.8865 1.27142 0.0205569 -1.76189 -0.225902
6 1 6.69109 9.52312 6.65282 1.59152 -0.565465 1.26338
7 1 10.9749 10.9052 2.64664 -0.689563 -0.125106 0.20886
8 1 10.967 11.0578 7.9459 0.45759 0.94092 0.808268
9 1 11.0295 5.47359 2.7515 -2.42268 -0.580543 -1.48459
10 1 11.1167 5.33969 8.08092 -0.482831 -0.573333 -0.821407
11 1 5.26476 11.1114 2.67735 0.598373 -0.279369 -0.083699
12 1 5.49806 10.9 8.17642 -1.47018 0.126411 -0.853852
13 1 5.41552 5.46117 2.6188 -0.616877 0.841028 -1.23339
14 1 1.52443 4.00596 6.65391 -1.97473 -0.729917 0.618796
15 1 1.03212 9.5901 1.04116 0.791424 0.612838 0.00120493
16 1 5.65905 5.36103 8.16086 -1.84646 0.218157 -2.22768
17 1 1.26164 6.83264 3.84906 1.59074 0.536579 1.95287
18 1 1.20877 6.62579 9.51297 0.376057 1.09912 0.582199
19 1 7.02239 1.14568 4.1347 -0.263793 -0.0414144 -2.11027
20 1 6.89991 1.05999 9.60893 0.173644 2.06557 -0.724933
21 1 6.8874 6.77828 3.98866 -0.625704 -0.106042 0.697053
22 1 6.95379 6.60946 9.54663 -0.229172 1.72097 -0.189217
23 1 11.0939 2.73546 10.7824 0.191023 -1.27704 0.68075
24 1 11.1026 2.6147 5.32669 1.00277 0.749626 -1.04362
25 1 10.7863 8.14937 10.7118 0.121102 0.814076 -0.222519
26 1 11.2367 8.30687 5.40863 -1.72437 -1.65281 -0.541937
27 1 5.45297 2.61602 10.943 0.00955095 0.165008 -1.33333
28 1 5.60268 2.57309 5.20253 -0.277934 -0.328396 2.01867
29 1 1.46746 1.10034 4.03669 -0.678702 0.654741 -0.39182
30 1 1.37694 1.29715 9.43819 0.00784046 -0.362673 -0.320158
31 1 5.61494 8.2887 10.701 -0.546012 -0.519101 1.4108
32 1 5.35425 8.16719 5.25377 0.505552 0.745698 -0.588875
33 1 4.21768 3.86681 3.95883 -1.83252 1.23155 -0.537729
34 1 3.98008 9.47343 9.4901 1.05064 1.12682 -0.417325
35 1 9.50524 3.98038 4.01352 1.39487 0.390064 -0.0205086
36 1 9.612 3.9445 9.38021 0.119727 0.566269 0.875983
37 1 9.53613 9.40193 4.08545 0.70516 2.10065 -0.37812
38 1 9.53707 9.86767 9.25646 -0.0177327 -3.28717 1.45393
39 1 2.57933 11.0301 10.6646 -0.427785 -0.530941 1.30987
40 1 2.59522 11.0088 5.47769 0.89364 -0.350206 -0.395457
41 1 2.61609 5.36492 10.955 0.514348 -0.197357 -0.655316
42 1 2.72662 5.3728 5.32815 0.537358 0.433098 -1.95221
43 1 8.20929 11.0397 10.7696 0.387245 -0.185563 0.983959
44 1 8.17849 11.0084 5.40846 0.60873 -0.568792 0.122122
45 1 8.14452 5.23229 10.9187 2.11618 0.783114 -0.392153
46 1 4.08057 4.12809 9.35409 0.234086 -1.7992 1.93967
47 1 3.90632 9.61503 3.90748 -0.0683764 -0.0829792 0.526606
48 1 8.39389 5.53495 5.54356 -1.76526 -1.6441 -2.09286
49 1 4.02905 7.02685 1.01826 0.868117 -1.80423 2.32894
50 1 4.20217 6.71946 6.54746 -0.185538 -0.743367 2.68278
51 1 9.9087 1.0532 1.15713 -1.34165 1.9392 0.596009
52 1 9.85038 1.32679 6.68066 -1.25732 -1.45906 0.508414
53 1 9.39688 6.86513 1.33799 1.44615 -0.775288 -0.519708
54 1 9.7383 6.84514 6.74344 1.3749 0.370287 0.570437
55 1 2.73668 2.54706 2.47407 -0.608141 0.332622 2.06015
56 1 2.79999 2.53007 8.00176 0.342855 0.952514 0.621689
57 1 2.4802 8.33766 2.39831 0.940582 -0.580871 0.399596
58 1 2.83265 7.92487 8.22079 -2.03394 1.38356 -1.9691
59 1 8.27382 2.50785 2.47141 0.806365 -0.474643 0.882294
60 1 8.29202 2.49022 8.1183 -0.605395 0.233644 -0.553717
61 1 4.06132 1.17279 1.29325 0.396069 -0.343412 -1.44784
62 1 4.30586 1.16884 6.81477 0.0840382 -0.204627 -0.827343
63 1 8.0025 8.29949 2.65245 0.773927 0.120503 -0.64348
64 1 8.25756 8.05616 8.12231 -0.817659 2.02671 -1.07121
