ITEM: TIMESTEP
40
ITEM: NUMBER OF ATOMS
64
ITEM: BOX BOUNDS xy xz yz pp pp pp
-2.1577784230499999e-01 1.1187578062354000e+01 -2.1577784230499999e-01
-5.8671844649000000e-02 1.1223192087773000e+01 5.3801181254999997e-02
0.0000000000000000e+00 1.0992593606461000e+01 -5.8671844649000000e-02
ITEM: ATOMS id type x y z fx fy fz
1 1 1.25712 4.06985 1.33029 0.529605 -0.568515 -0.872527
2 1 1.37988 9.5886 6.81288 -1.11256 0.0515049 -0.00285388
3 1 6.82919 3.96569 1.29889 -0.0750714 0.21928 -0.627927
4 1 6.93468 4.016 6.73329 0.209754 -1.06196 -0.623374
5 1 6.67804 9.748 1.25119 0.810579 -0.925747 -0.129874
6 1 6.80142 9.56485 6.68482 0.0957161 -0.17369 0.373744
7 1 11.009 11.0281 2.53895 -1.01826 -0.361722 0.707069
8 1 10.8936 11.0715 8.08509 0.745832 -0.549468 -0.284553
9 1 10.9231 5.42136 2.59714 1.03913 0.984732 0.722165
10 1 11.1844 5.31097 8.02752 -0.80858 0.559155 0.351233
11 1 5.315 11.0709 2.60345 -0.455207 0.00662726 -0.039711
12 1 5.38244 10.8811 8.1625 -0.232903 0.972984 -0.903663
13 1 5.4538 5.4704 2.63205 -0.0435187 -0.587287 -0.801657
14 1 1.40025 3.98932 6.63241 0.142207 -0.362517 0.506507
15 1 1.04698 9.629 1.09632 0.935192 -0.196682 0.648241
16 1 5.62136 5.31167 8.03976 -1.79408 0.197645 1.04387
17 1 1.45751 6.80775 3.95978 -2.02597 0.0170651 -0.752142
18 1 1.24634 6.74608 9.52412 0.0672835 -0.385224 -0.350098
19 1 6.96728 1.18523 3.94536 -0.249365 0.018721 0.273994
20 1 6.9533 1.1864 9.48876 -0.507842 0.0127427 0.289926
21 1 6.89943 6.72329 3.92628 -0.194222 1.0942 0.843437
22 1 6.87318 6.72019 9.42954 0.180972 0.390701 0.885276
23 1 11.112 2.57732 10.8186 0.277674 0.451239 0.256809
24 1 11.1206 2.66753 5.29735 -0.00298946 -0.648394 0.08937
25 1 10.9369 8.13115 10.8068 0.298342 0.0942508 -0.197739
26 1 11.1095 8.21685 5.36243 -0.260862 -0.205022 0.0574948
27 1 5.35795 2.54006 10.8881 1.51606 -0.229956 -0.181335
28 1 5.5887 2.55175 5.33857 -0.17168 0.447739 0.0838221
29 1 1.33968 1.14875 3.98994 0.129191 0.583745 0.0788028
30 1 1.41489 1.26124 9.45317 -0.409419 -0.730598 -0.0904056
31 1 5.49211 8.13792 10.9041 0.338178 0.761464 -1.14147
32 1 5.38822 8.1506 5.29001 0.233897 0.146182 0.109699
33 1 4.18338 4.00348 3.96954 -0.187094 -0.805834 -0.113648
34 1 3.9897 9.55358 9.56723 0.418669 -0.88269 -0.764137
35 1 9.64758 4.00704 4.04691 0.0246605 0.236414 -0.580315
36 1 9.74099 3.98036 9.3803 -0.368705 0.105772 1.02484
37 1 9.60746 9.6329 4.00425 0.0543059 -0.0697723 -0.147811
38 1 9.62157 9.56253 9.50923 -0.854723 0.645612 -0.640849
39 1 2.48662 10.903 10.7527 0.223089 0.770763 0.170731
40 1 2.55538 11.046 5.30771 0.320249 -0.353487 0.649174
41 1 2.70142 5.40261 10.8054 0.0855704 -0.501931 0.863993
42 1 2.7356 5.3219 5.24892 0.43621 0.494574 0.683389
43 1 8.16268 11.0069 10.8585 0.408729 0.0748505 -0.00382482
44 1 8.14559 11.0514 5.31441 0.344191 -0.21381 0.416566
45 1 8.28714 5.3547 10.8871 0.0633646 -0.212032 -0.471704
46 1 4.08078 3.9411 9.4757 0.681478 0.756663 -0.310065
47 1 3.93072 9.65773 3.95353 0.293887 -0.627252 -0.265202
48 1 8.28714 5.40565 5.40327 0.117155 0.238081 -0.364017
49 1 4.08789 6.88454 1.17593 -0.866526 -0.907799 0.708657
50 1 4.10577 6.65998 6.73956 0.101189 0.447439 -0.289818
51 1 9.83736 1.19802 1.25996 -1.44809 0.389067 -0.250833
52 1 9.75411 1.31551 6.68384 -0.373999 -0.932497 0.258449
53 1 9.57129 6.92499 1.24192 -0.474322 -0.915982 0.310722
54 1 9.69939 6.76789 6.78511 0.3201 0.281797 -0.556828
55 1 2.72515 2.54894 2.66016 -0.141034 0.604292 -0.606751
56 1 2.78768 2.5818 8.07367 -0.17741 0.0152846 -0.560457
57 1 2.5524 8.29692 2.40631 0.642316 -0.264635 1.06106
58 1 2.68729 7.98269 8.1702 0.368018 1.44952 -0.472702
59 1 8.30989 2.60445 2.63585 0.362035 -0.113054 -0.495701
60 1 8.28893 2.60654 8.09415 0.253755 -0.18032 -0.0431173
61 1 3.99059 1.102 1.20159 0.460348 0.464568 0.302388
62 1 4.1793 1.17749 6.70118 0.533354 -0.569549 0.621483
63 1 8.12639 8.29519 2.60292 0.412139 0.0859078 0.0457802
64 1 8.25751 8.14623 8.12507 -0.219991 0.466841 -0.501587
