ITEM: TIMESTEP
50
ITEM: NUMBER OF ATOMS
64
ITEM: BOX BOUNDS xy xz yz pp pp pp
-2.1577784230499999e-01 1.1187578062354000e+01 -2.1577784230499999e-01
-5.8671844649000000e-02 1.1223192087773000e+01 5.3801181254999997e-02
0.0000000000000000e+00 1.0992593606461000e+01 -5.8671844649000000e-02
ITEM: ATOMS id type x y z fx fy fz
1 1 1.33096 3.97609 1.28473 0.0328746 0.0354139 -0.82611
2 1 1.28547 9.64441 6.76338 -0.264658 -0.880025 -0.233554
3 1 6.93433 4.02534 1.22725 -1.04417 0.178087 0.0690616
4 1 6.84463 3.91864 6.62571 1.25048 0.296392 0.899423
5 1 6.71841 9.73428 1.22685 0.285696 -1.19618 -0.0879398
6 1 6.77913 9.57623 6.638 0.384777 -0.102011 1.25643
7 1 10.9857 10.9764 2.53203 -0.5733 -0.0716196 0.977994
8 1 10.8721 11.0889 7.9573 0.848102 -0.837132 1.1535
9 1 11.0055 5.30784 2.55339 0.313843 1.12631 0.780382
10 1 11.1211 5.42662 7.9718 0.100387 -0.378361 1.56011
11 1 5.37937 11.1069 2.57819 -0.405586 -0.302902 0.883135
12 1 5.30333 10.8805 8.1483 0.625843 1.25265 -0.762134
13 1 5.3615 5.42863 2.57344 0.781119 -0.0420182 -0.257162
14 1 1.40241 3.91551 6.7763 -0.573367 1.22417 -0.909524
15 1 1.19468 9.58966 1.20336 0.435636 0.791537 0.0651957
16 1 5.57288 5.34782 7.94444 -0.905826 -0.138116 1.35356
17 1 1.33161 6.81991 3.8845 -0.955412 -0.473174 0.480582
18 1 1.35468 6.78621 9.52291 -1.0836 -0.179095 -0.85521
19 1 6.93747 1.34324 4.01309 0.556566 -1.45188 -1.01867
20 1 6.98578 1.15517 9.52802 -0.812404 0.427765 -0.411311
21 1 6.92386 6.71086 3.91098 -0.968244 0.733841 0.910522
22 1 6.86888 6.678 9.47368 -0.622996 1.11201 0.0118076
23 1 11.017 2.58185 10.8728 1.57481 -0.169078 -0.283833
24 1 11.0819 2.69852 5.38858 0.724694 -0.93925 -1.11335
25 1 11.0595 8.15648 10.9211 -0.5876 -0.57038 -0.628955
26 1 11.0021 8.16283 5.34963 0.464457 0.208943 0.115395
27 1 5.46476 2.56285 11.0001 1.1026 0.133016 -2.03286
28 1 5.46151 2.52035 5.33756 0.485668 -0.0417677 0.788593
29 1 1.37385 1.22698 3.92001 -0.522855 0.469298 0.260554
30 1 1.31277 1.19408 9.46151 0.638127 -0.207134 0.155253
31 1 5.35505 8.14148 10.8693 1.78659 -0.0169856 -0.215918
32 1 5.38421 8.13517 5.33446 0.887763 -0.00627962 -0.646916
33 1 4.21041 3.96529 4.1189 -1.35972 0.646428 -1.90723
34 1 4.01722 9.54511 9.60067 0.101627 -0.216706 -1.45727
35 1 9.64622 4.0245 4.03089 0.690708 -0.349756 -0.66352
36 1 9.7801 3.94043 9.44354 -0.508663 1.1913 -0.0962414
37 1 9.57332 9.51987 4.00237 0.407543 1.25785 -0.16909
38 1 9.7412 9.61092 9.52408 -1.06907 -0.248082 -0.624998
39 1 2.62584 10.9447 10.7961 -0.945639 0.847022 0.383053
40 1 2.48969 11.037 5.23569 0.667364 -0.104944 1.05955
41 1 2.67874 5.38789 10.8039 0.125871 -1.08431 0.0874189
42 1 2.63879 5.34159 5.26058 0.726095 0.313668 0.77338
43 1 8.18235 10.9566 10.796 0.410808 0.0765693 0.264839
44 1 8.1665 11.0464 5.29515 -0.0600366 0.145218 0.233274
45 1 8.27509 5.34601 10.7805 0.806524 0.158343 0.698096
46 1 4.09844 3.94187 9.40938 0.915451 0.554447 0.715896
47 1 4.00188 9.63123 4.04817 -0.00298024 -0.0419914 -1.15445
48 1 8.37253 5.36333 5.41584 -1.38904 0.456331 -0.532958
49 1 3.88524 6.88135 1.14584 1.28592 -1.02734 1.17436
50 1 4.10275 6.72377 6.69979 -0.520087 -0.0889151 -0.185671
51 1 9.82805 1.11363 1.18973 -1.63779 0.602217 0.581254
52 1 9.78692 1.28739 6.68951 -1.36989 -0.499985 -0.00527133
53 1 9.57376 6.81625 1.36322 0.124947 -0.173042 -1.5715
54 1 9.63266 6.81031 6.79192 0.191733 0.161286 -0.347402
55 1 2.83563 2.62977 2.59484 -1.00778 0.164156 0.704092
56 1 2.73201 2.58787 8.08764 0.0180149 -0.575775 0.562072
57 1 2.59015 8.27148 2.50444 0.602096 0.0860913 1.19871
58 1 2.75345 8.07903 8.11187 -0.67616 1.25415 -0.215786
59 1 8.35102 2.64529 2.52599 0.0766935 -0.667216 0.632173
60 1 8.33596 2.67406 8.10415 -0.542425 -1.10818 -0.222464
61 1 4.09301 1.207 1.28184 0.131895 -0.671694 -0.382921
62 1 4.06404 1.19314 6.74814 0.737209 -1.17455 0.0638551
63 1 8.16574 8.2798 2.61135 -0.364434 -0.305084 -0.350069
64 1 8.25765 8.19287 8.18677 -0.526797 0.436455 -0.683243
