ITEM: TIMESTEP
510
ITEM: NUMBER OF ATOMS
64
ITEM: BOX BOUNDS xy xz yz pp pp pp
-2.1577784230499999e-01 1.1187578062354000e+01 -2.1577784230499999e-01
-5.8671844649000000e-02 1.1223192087773000e+01 5.3801181254999997e-02
0.0000000000000000e+00 1.0992593606461000e+01 -5.8671844649000000e-02
ITEM: ATOMS id type x y z fx fy fz
1 1 1.29311 4.06893 1.4185 0.00609942 1.2376 -1.41367
2 1 1.05404 9.54469 6.78207 1.96585 1.17326 0.659535
3 1 6.94061 3.84303 1.12989 -1.31807 -0.328894 1.54054
4 1 6.84698 4.09363 6.74337 -0.991266 0.856209 0.39404
5 1 6.87332 9.71516 1.27992 -0.45091 -0.768977 -0.232322
6 1 6.65381 9.67068 6.67136 1.62181 -1.09365 0.652508
7 1 11.0006 10.9424 2.48494 -0.820544 0.688995 1.65169
8 1 11.0154 11.0403 8.18647 -0.000159786 0.604467 -0.355699
9 1 11.0294 5.43372 2.76933 -0.0756383 -0.142712 -1.2932
10 1 10.8645 5.21327 8.03304 0.582177 1.2839 0.0519851
11 1 5.28144 10.9915 2.56908 0.503474 0.412611 0.780608
12 1 5.35178 11.2567 7.95745 0.102052 -1.68576 0.952638
13 1 5.50232 5.29412 2.53034 -0.0503957 0.817345 -0.115993
14 1 1.18588 3.99748 6.61658 0.911855 -0.298667 0.602504
15 1 1.16904 9.57022 1.23148 1.01716 -0.931005 -1.05223
16 1 5.31334 5.48491 8.26907 2.27106 -0.349317 -1.53032
17 1 1.26629 6.83521 4.03941 1.21198 -0.625696 -0.587588
18 1 1.18162 6.61227 9.37712 0.407402 0.896057 1.59773
19 1 7.03296 1.14275 4.04716 -0.925078 0.30109 -0.905025
20 1 6.97739 1.19387 9.48348 -0.340632 0.618678 -1.1274
21 1 6.65447 6.88033 3.98651 1.59633 -0.237198 -0.532561
22 1 7.00721 6.66329 9.56049 -0.719993 1.18418 -1.13386
23 1 11.4385 2.69924 10.7954 -1.47759 -1.20673 0.393201
24 1 11.0054 2.43525 5.39821 0.901271 0.827412 -1.49572
25 1 10.8352 8.08574 10.8544 1.57718 0.505681 -1.23075
26 1 11.1095 8.21004 5.29503 -0.725237 -0.565574 0.85574
27 1 5.4357 2.48713 10.7645 1.24494 -0.0221115 0.945217
28 1 5.4998 2.72405 5.30135 1.18438 -0.954028 -0.507877
29 1 1.42606 1.15859 3.9692 -0.292692 -0.200803 0.0413017
30 1 1.67719 1.25828 9.46397 -1.5563 -0.270948 -0.868886
31 1 5.54546 8.19979 10.7862 0.423392 0.455411 0.22532
32 1 5.25683 8.17848 5.44548 1.13843 0.243984 -0.435153
33 1 4.09042 3.94315 3.90795 -0.597524 0.907472 -0.0677854
34 1 4.08213 9.56946 9.32382 0.890613 1.39094 1.2425
35 1 9.67639 3.91389 3.89264 -0.934128 0.391527 1.76594
36 1 9.74042 3.74232 9.60007 -0.556769 1.69263 -1.50072
37 1 9.6967 9.49569 4.08318 -0.333559 1.48958 -1.82318
38 1 9.57719 9.65403 9.35623 -0.6642 -1.03436 1.40803
39 1 2.63268 10.9152 10.7278 0.232545 -0.141319 1.2512
40 1 2.59219 11.0342 5.53188 -0.259543 -0.927068 -1.72399
41 1 2.75846 5.40949 10.9912 -1.44925 0.314387 -1.10103
42 1 2.71934 5.42143 5.40073 -0.617666 -0.496506 -0.98031
43 1 8.14818 11.0792 10.8247 1.28627 -0.290193 -0.0191267
44 1 8.22508 10.8591 5.30074 -0.371736 0.803927 0.675977
45 1 8.22738 5.18726 10.8912 1.65575 0.704557 -0.385768
46 1 4.17296 4.0626 9.67531 -0.964539 -0.413875 -1.40944
47 1 3.9763 9.48963 4.039 -0.42254 2.18393 0.189224
48 1 8.20482 5.47111 5.3073 -0.268312 -1.16493 -1.25544
49 1 4.12482 6.85905 1.15037 0.180256 0.161471 1.2551
50 1 3.95618 6.83757 6.79058 -0.536682 0.179869 1.3303
51 1 9.92316 1.33297 1.16886 -0.262416 -2.02276 -0.531511
52 1 9.76147 1.09538 6.79366 -0.825828 0.000630687 -0.226138
53 1 9.63075 6.69394 1.21582 -0.706228 -0.145472 0.985544
54 1 9.62359 6.78246 6.53839 0.558379 -0.31169 1.27753
55 1 2.63861 2.63894 2.42138 1.18816 -0.940629 2.72423
56 1 2.83443 2.79441 8.01445 -0.558342 -0.376877 0.597112
57 1 2.69653 8.17044 2.63919 -0.913701 0.0618168 -0.944759
58 1 2.53241 8.33296 8.26914 -0.300919 -2.4605 -2.11748
59 1 8.42474 2.47571 2.4937 -1.01963 0.506792 0.818046
60 1 8.30131 2.70611 7.9597 -0.137567 -1.87194 1.37405
61 1 3.99937 1.20331 1.21278 1.30437 -0.7534 -0.171525
62 1 4.16521 1.37842 6.6526 -0.117502 -0.320956 0.400895
63 1 8.35351 8.23987 2.64333 -1.86604 -0.843522 -0.330508
64 1 8.28075 8.09906 7.93309 -1.53405 1.30168 0.766723
