ITEM: TIMESTEP
540
ITEM: NUMBER OF ATOMS
64
ITEM: BOX BOUNDS xy xz yz pp pp pp
-2.1577784230499999e-01 1.1187578062354000e+01 -2.1577784230499999e-01
-5.8671844649000000e-02 1.1223192087773000e+01 5.3801181254999997e-02
0.0000000000000000e+00 1.0992593606461000e+01 -5.8671844649000000e-02
ITEM: ATOMS id type x y z fx fy fz
1 1 1.35909 3.86032 1.20101 -1.43405 1.14628 0.860504
2 1 1.44783 9.49834 6.81785 -0.542596 0.298678 -0.681775
3 1 6.79532 4.10492 1.33834 1.30814 -0.805414 0.648892
4 1 7.00979 3.79966 6.69303 -1.53398 1.85543 -0.743251
5 1 6.74895 9.76678 1.15218 0.342241 -1.62247 0.320872
6 1 6.88911 9.5247 6.71086 -0.562884 0.368462 0.00702241
7 1 10.9613 10.8534 2.52633 -0.222496 0.509986 2.01978
8 1 10.9717 10.9506 7.92102 0.123219 0.595307 0.571818
9 1 10.9169 5.43119 2.51826 1.29319 -0.976523 0.379922
10 1 11.1685 5.33182 8.05955 -0.639541 0.369006 -0.546795
11 1 5.4149 10.9824 2.55344 0.390715 1.4425 0.379948
12 1 5.41739 10.8414 8.01772 0.272843 0.325449 2.37603
13 1 5.36024 5.60644 2.59746 -0.241585 -1.39477 -0.289049
14 1 1.47196 4.07793 6.57195 -0.960403 -2.01909 2.04661
15 1 1.14205 9.68403 1.01563 -0.0094822 -0.441999 0.770827
16 1 5.65792 5.36929 7.89627 -0.772984 0.537557 1.38912
17 1 1.28141 6.85812 3.90692 0.0899812 0.28344 -0.425696
18 1 1.21967 6.74752 9.48483 0.401128 0.374075 0.284405
19 1 7.02198 1.19648 3.99582 -1.21767 -0.516439 -0.220807
20 1 6.90601 1.1585 9.63502 0.388864 0.43194 -2.46359
21 1 6.73031 6.78528 3.9597 1.86051 0.613432 0.627315
22 1 6.87685 6.89454 9.50445 -0.935 -1.13097 0.120091
23 1 10.8814 2.54224 10.9078 1.24237 -0.556633 -0.225301
24 1 11.2023 2.60442 5.25665 -0.309788 0.263369 0.729027
25 1 10.8497 8.12077 10.8766 0.952286 0.470082 -1.18513
26 1 11.0283 8.14301 5.45444 -0.886873 -0.908977 0.445476
27 1 5.58392 2.70724 10.9433 -0.504628 -0.978073 -0.487734
28 1 5.53862 2.51106 5.37374 0.0704904 -0.388693 0.272425
29 1 1.36879 1.10533 4.07194 0.06504 -0.0168461 -1.74023
30 1 1.254 1.26644 9.41022 -0.374594 -0.352649 0.216194
31 1 5.40298 8.23341 10.9656 0.780683 -0.198423 -1.17244
32 1 5.48458 8.27226 5.26742 -0.931788 -0.203921 0.0971548
33 1 4.25311 4.01509 4.05421 -1.24888 -0.35793 -0.806392
34 1 3.97077 9.46328 9.57482 1.13592 2.66587 -0.170249
35 1 9.68028 3.93538 4.1096 0.144254 1.04965 -1.79544
36 1 9.74739 4.044 9.36115 -1.50754 -0.450831 1.70264
37 1 9.52087 9.44487 4.02944 0.763404 1.23481 0.0337087
38 1 9.61591 9.61887 9.35135 0.393267 -0.0159328 0.925509
39 1 2.46983 11.1312 10.7354 1.59472 -0.693243 0.246784
40 1 2.65804 11.1394 5.36613 -0.109361 -2.48491 -0.551729
41 1 2.60646 5.39082 10.8746 0.828012 -0.231235 -0.180409
42 1 2.68592 5.35628 5.28294 0.94194 1.38354 -1.13597
43 1 8.2217 10.9437 10.7615 -0.356605 0.156759 -0.0331159
44 1 8.09675 11.0164 5.3516 1.21267 -0.358007 -0.328542
45 1 8.20657 5.36997 10.9239 0.638659 -0.214498 -1.78225
46 1 4.28434 4.15022 9.50887 -1.81711 -1.4271 -0.982672
47 1 4.04853 9.68872 3.82117 -0.514428 0.151381 2.14585
48 1 8.27983 5.41524 5.42397 -1.02997 -0.746064 -1.69034
49 1 3.95269 6.94764 1.19852 -0.405032 -0.769827 0.642808
50 1 4.1126 6.75278 6.55297 0.0553714 0.6378 1.52834
51 1 9.65375 0.89088 1.35879 0.617686 2.65183 -1.02595
52 1 9.77509 1.26463 6.57681 -0.329896 -0.833389 1.34737
53 1 9.44524 6.85038 1.23055 0.418933 -0.0222376 0.552873
54 1 9.43215 6.67478 6.91191 3.28837 1.70448 -1.29659
55 1 2.77388 2.55884 2.68671 0.37981 -0.119004 -0.400005
56 1 2.75374 2.51071 8.11399 1.31136 2.13606 -0.0165697
57 1 2.61074 8.50235 2.46552 -0.859505 -2.30358 0.66852
58 1 2.8656 8.0905 8.27787 -1.74575 -1.21869 -2.25973
59 1 8.36032 2.50629 2.60557 -0.883139 1.26268 -0.0747729
60 1 8.25602 2.6301 8.02751 1.4526 -2.0042 1.92188
61 1 4.26154 1.1597 1.25688 -1.69533 0.844432 -0.449723
62 1 4.2094 0.975321 6.8392 0.353535 2.30262 -0.515234
63 1 8.08486 8.29775 2.57736 -0.0793964 -0.776634 0.0118137
64 1 8.235 8.24735 8.17544 -0.449911 -0.527683 -0.614046
