ITEM: TIMESTEP
600
ITEM: NUMBER OF ATOMS
64
ITEM: BOX BOUNDS xy xz yz pp pp pp
-2.1577784230499999e-01 1.1187578062354000e+01 -2.1577784230499999e-01
-5.8671844649000000e-02 1.1223192087773000e+01 5.3801181254999997e-02
0.0000000000000000e+00 1.0992593606461000e+01 -5.8671844649000000e-02
ITEM: ATOMS id type x y z fx fy fz
1 1 1.35992 4.09374 1.30334 0.341549 -0.257455 -0.106172
2 1 1.17142 9.64035 6.80274 -0.158101 0.339499 -0.63609
3 1 6.90787 3.9383 1.27722 -0.44445 -0.268474 -1.106
4 1 6.79217 3.97183 6.66368 1.60219 1.45252 0.0576752
5 1 6.77709 9.65599 1.21033 0.261555 1.25587 0.335273
6 1 6.73159 9.50046 6.64535 0.734345 1.0897 0.557527
7 1 10.9743 10.9382 2.63277 1.42888 -0.20089 -2.43607
8 1 10.8169 11.1481 8.07139 1.02376 -1.53225 0.352194
9 1 11.026 5.39629 2.82116 -0.658643 -0.794034 -1.40715
10 1 10.9715 5.48715 7.90087 1.22916 -0.851385 1.77632
11 1 5.43648 10.9431 2.8157 -0.453456 0.0738874 -1.27243
12 1 5.34296 10.997 8.03694 -0.36052 -0.257965 -1.36444
13 1 5.47985 5.40394 2.52034 0.296482 0.319851 0.404929
14 1 1.29556 3.94142 6.74652 -1.34593 -0.451455 -0.299432
15 1 1.39311 9.45462 1.13966 -2.20835 1.50369 1.23938
16 1 5.599 5.54319 8.02109 -0.965998 -1.22986 0.686286
17 1 1.27361 6.85935 3.94984 0.519035 -0.194935 0.896992
18 1 1.18871 6.76629 9.55467 0.730284 0.386206 -1.66746
19 1 6.91508 1.35222 3.96553 0.98152 -2.09872 -0.576629
20 1 6.86854 1.05996 9.36458 0.965475 0.925102 1.74849
21 1 6.84653 6.90135 3.89745 -0.800796 -0.979604 0.810977
22 1 7.04698 6.70861 9.52665 -0.565094 0.390556 -0.40395
23 1 11.1895 2.62102 10.8256 0.499648 0.0843805 -0.244785
24 1 10.8976 2.5137 5.33381 1.71946 0.225998 0.683242
25 1 10.9097 8.14133 10.8559 -0.0871297 -1.37938 1.7232
26 1 10.9236 8.28779 5.30521 0.672996 -0.555243 0.743311
27 1 5.48223 2.38764 10.9604 0.0911816 1.05151 -1.31934
28 1 5.55226 2.59242 5.22795 -0.668583 0.281664 1.65619
29 1 1.34687 1.32896 3.81954 -0.422844 -0.617626 1.26922
30 1 1.43034 1.14855 9.41588 0.479517 -0.284211 1.25406
31 1 5.72882 8.21041 10.7944 -1.87635 -0.741131 -0.0245337
32 1 5.35427 8.04888 5.38295 0.321461 0.848725 -0.530583
33 1 4.20385 3.96737 3.98439 -0.416929 1.55478 0.225659
34 1 4.22015 9.56911 9.47715 -0.963775 -0.46427 -0.182397
35 1 9.51277 3.87357 4.08252 1.07681 1.49292 -0.99452
36 1 9.76636 4.0514 9.42287 0.0888946 -1.40124 -0.647955
37 1 9.59993 9.64495 3.94895 -1.29689 -0.0276315 -0.000428068
38 1 9.621 9.61008 9.57138 0.401357 -0.178524 -1.41933
39 1 2.74609 10.8915 10.8214 -1.10899 0.503053 -0.595608
40 1 2.42973 11.0237 5.2266 0.72544 0.527389 1.298
41 1 2.73734 5.40866 10.7372 0.658319 0.383501 1.28727
42 1 2.58264 5.21692 5.34972 1.58437 2.48682 -0.0174666
43 1 8.2347 10.9358 10.7529 -1.18253 0.964756 0.617481
44 1 8.13878 11.0962 5.29227 -0.750721 -1.1912 0.0860146
45 1 8.35345 5.17067 10.7833 -0.932102 1.03592 1.12009
46 1 4.18693 4.00238 9.39837 0.654065 -0.473314 1.08577
47 1 4.01754 9.58177 4.14057 -0.383766 -0.139784 -0.802847
48 1 8.31328 5.56462 5.30239 -1.60109 -1.65003 0.78556
49 1 4.20984 6.95919 1.15759 -0.998135 -1.6974 -0.508112
50 1 3.98519 6.83774 6.79791 -0.541647 -1.85213 -0.946755
51 1 9.92853 1.04964 0.990751 -1.77179 1.50593 2.59451
52 1 9.55438 1.14373 6.7851 0.513262 0.868701 -0.15133
53 1 9.4017 6.61221 1.40224 2.19579 2.21074 -1.57676
54 1 9.59619 6.90126 6.8005 -0.370438 0.694182 -1.12766
55 1 2.91884 2.67579 2.67998 -1.76963 -0.967312 -1.87055
56 1 2.67924 2.63223 8.16072 0.983898 -0.037921 -0.928823
57 1 2.7648 8.20351 2.5553 -0.15405 -0.279758 0.735936
58 1 2.68081 8.25075 8.11099 -1.03001 -0.295804 1.01671
59 1 8.36893 2.51295 2.46135 0.697485 -0.708997 -0.231674
60 1 8.20289 2.58967 8.15465 0.384119 0.405651 -0.531468
61 1 4.1504 0.940117 1.4102 0.289299 1.57521 -0.384347
62 1 4.10147 1.2728 6.68123 -0.207527 -0.793582 -0.0686796
63 1 8.03173 8.33089 2.55079 2.1921 -0.773767 0.657995
64 1 8.22283 8.31007 8.21077 0.152564 -0.811423 -1.32449
