ITEM: TIMESTEP
70
ITEM: NUMBER OF ATOMS
64
ITEM: BOX BOUNDS xy xz yz pp pp pp
-2.1577784230499999e-01 1.1187578062354000e+01 -2.1577784230499999e-01
-5.8671844649000000e-02 1.1223192087773000e+01 5.3801181254999997e-02
0.0000000000000000e+00 1.0992593606461000e+01 -5.8671844649000000e-02
ITEM: ATOMS id type x y z fx fy fz
1 1 1.38978 3.89017 1.10205 -0.401995 0.51705 0.595391
2 1 1.10354 9.53013 6.5636 0.468769 1.32299 0.610147
3 1 6.92816 4.11239 1.16812 0.411403 -0.582359 0.190271
4 1 6.91207 3.95956 6.7706 -0.604718 0.073572 -0.514278
5 1 6.82053 9.49136 1.19226 -0.201333 0.781942 0.210697
6 1 6.80389 9.65692 6.80413 -0.125791 -0.134251 -1.10417
7 1 10.8663 11.0071 2.65175 0.64553 0.256112 -0.795459
8 1 10.9892 10.9316 8.06274 -0.777627 0.293355 -0.324302
9 1 11.1679 5.30002 2.50809 -0.579117 0.50715 -0.0109952
10 1 10.9853 5.49589 8.20883 0.135569 0.0958779 -1.50283
11 1 5.462 10.9754 2.65048 -0.00142348 0.264076 -1.3057
12 1 5.42243 11.1087 8.01502 -0.82532 -0.974677 0.247406
13 1 5.47726 5.38543 2.54484 -0.364145 -0.142463 0.508598
14 1 1.23106 4.07732 6.79934 0.774162 -1.48542 0.609177
15 1 1.45376 9.69236 1.40444 -1.47609 -0.960168 -0.57511
16 1 5.39727 5.41523 8.0558 0.437358 0.193622 -0.246528
17 1 1.10126 6.79084 4.05955 1.04819 -0.384075 -0.835556
18 1 1.36151 6.8517 9.37599 0.303009 -0.0183683 0.88922
19 1 6.99229 1.20889 3.92819 -0.719482 0.584333 1.10072
20 1 6.95549 1.13535 9.40568 0.836387 -0.0891717 0.714793
21 1 6.74932 6.78554 3.97799 0.821726 -0.259523 -0.480319
22 1 6.78929 6.84795 9.45323 0.470137 -0.761081 -0.0809749
23 1 11.1495 2.45899 10.8395 -1.33998 0.468883 -0.036699
24 1 11.1064 2.5366 5.33499 -0.609711 0.652149 0.788375
25 1 11.137 8.1526 10.9267 0.484793 0.760835 0.104475
26 1 10.8817 8.16404 5.32004 -0.703052 0.102724 0.0186231
27 1 5.7722 2.63267 10.7063 -1.10446 -0.44811 1.58897
28 1 5.39486 2.50651 5.43833 0.421583 1.05182 -1.41693
29 1 1.33948 1.30226 3.91917 0.470093 -1.17851 0.350328
30 1 1.36222 1.05548 9.54224 0.294377 0.0501085 -0.201903
31 1 5.42058 8.09774 10.8813 -1.0227 0.881375 -0.528545
32 1 5.55246 8.21065 5.35116 -1.00808 0.256604 0.588018
33 1 3.98437 4.09056 3.95899 1.24937 -0.698681 1.35664
34 1 4.06909 9.67071 9.38253 0.0038974 -0.527097 1.34635
35 1 9.78882 3.95833 3.89074 -1.16344 0.381209 0.824976
36 1 9.72488 4.041 9.47746 -0.113664 -1.66403 0.292903
37 1 9.52993 9.61323 3.98905 -0.305975 -0.636435 -0.382851
38 1 9.66955 9.51478 9.4477 0.016297 0.106838 0.64805
39 1 2.71241 11.1061 10.9164 0.38157 -0.824062 -0.237393
40 1 2.53689 11.0066 5.31287 -0.192819 -0.0757638 -0.82982
41 1 2.72366 5.23878 10.7258 0.222719 1.5007 0.517982
42 1 2.56528 5.4764 5.40469 0.225811 -0.617793 -0.320191
43 1 8.19359 10.9039 10.7498 -0.314406 -0.00823459 0.396011
44 1 8.1156 10.9987 5.30629 0.0619751 -0.0613621 0.146433
45 1 8.34671 5.44367 10.7875 -1.01034 -0.28867 -0.425607
46 1 4.259 3.93241 9.53041 -0.934007 -0.0319021 -1.06632
47 1 4.1542 9.63039 4.01399 -0.833803 -0.0402329 0.665806
48 1 8.17668 5.38148 5.25802 1.02632 -0.603683 0.33722
49 1 3.99024 6.718 1.30983 -0.280875 0.484518 -0.658183
50 1 3.97339 6.88808 6.65031 0.712832 -0.0660048 0.728493
51 1 9.56721 1.13899 1.24327 1.43467 0.0701791 -0.511528
52 1 9.63069 1.11725 6.72628 1.46769 0.289872 -0.048729
53 1 9.67572 6.68486 1.17107 0.481143 1.13327 0.932242
54 1 9.50485 6.85283 6.74034 0.0774669 -0.68563 0.0265311
55 1 2.75262 2.67772 2.59072 0.342762 -0.83148 -0.445458
56 1 2.70729 2.50622 8.23886 -0.212324 1.13981 -1.4685
57 1 2.71967 8.13956 2.89102 -0.448753 0.333627 -1.86342
58 1 2.58458 8.42001 7.93757 0.642478 -1.52574 1.00403
59 1 8.32931 2.63313 2.53997 -0.376955 0.25374 0.150919
60 1 8.31299 2.51253 8.11108 0.704006 1.09688 -0.286664
61 1 4.35205 1.31373 1.26706 -0.500085 -0.193525 -0.122612
62 1 4.0187 1.05202 6.78422 0.551272 1.32247 -0.0976339
63 1 8.20087 8.09413 2.55875 0.460486 0.340128 0.197359
64 1 8.14578 8.28989 8.11644 0.466598 -0.769319 0.0380616
