ITEM: TIMESTEP
800
ITEM: NUMBER OF ATOMS
64
ITEM: BOX BOUNDS xy xz yz pp pp pp
-2.1577784230499999e-01 1.1187578062354000e+01 -2.1577784230499999e-01
-5.8671844649000000e-02 1.1223192087773000e+01 5.3801181254999997e-02
0.0000000000000000e+00 1.0992593606461000e+01 -5.8671844649000000e-02
ITEM: ATOMS id type x y z fx fy fz
1 1 1.25587 4.27659 1.41829 1.30914 -1.15486 -1.13432
2 1 1.12593 9.73215 6.72033 0.78822 -2.09483 1.28023
3 1 6.94651 3.88116 1.2463 -1.73371 0.749433 -1.07539
4 1 6.89027 4.0887 6.61194 0.171058 -0.314401 1.05549
5 1 6.77432 9.72062 1.38597 -0.802574 -0.590573 -2.44913
6 1 6.73368 9.66732 6.63656 0.988931 -0.971173 -0.186537
7 1 10.7929 11.0272 2.54199 2.71881 -0.590667 -0.17697
8 1 10.8197 10.96 8.13869 1.18597 1.33598 0.782931
9 1 10.9437 5.45895 2.78135 0.636909 0.852689 -0.345551
10 1 11.0799 5.42516 8.05627 -1.43623 -0.267986 0.0558044
11 1 5.33217 10.9304 2.83763 0.198851 0.576181 -0.455527
12 1 5.34219 10.8309 7.9615 -0.990173 2.47403 0.224547
13 1 5.44648 5.33527 2.59305 1.98937 1.7824 -0.69856
14 1 1.18796 3.85601 6.73526 1.50335 1.15378 -0.396498
15 1 1.23219 9.47883 1.25709 -0.465466 2.11711 0.0816234
16 1 5.45098 5.41443 8.00581 1.04076 -0.560646 1.04193
17 1 1.42021 6.8035 4.04155 -0.582851 0.0110717 -0.267842
18 1 1.24606 6.78584 9.55654 -0.081825 -0.785751 0.393102
19 1 6.97922 1.20833 4.09294 -0.0757989 0.906462 -2.2437
20 1 6.83012 1.03638 9.45159 0.345974 0.328329 -0.0202893
21 1 6.92068 6.89291 4.0049 -1.80833 -0.62861 -1.32371
22 1 6.99053 6.63817 9.52428 0.463822 0.42766 -1.63705
23 1 11.3604 2.81729 10.8615 -0.993808 -1.81467 -0.0456832
24 1 10.8883 2.61242 5.30896 0.340436 -0.492596 0.137993
25 1 10.9656 8.27354 10.8671 0.253984 -1.32271 -0.0174598
26 1 11.0359 8.32598 5.16721 -0.323447 0.0812266 0.919555
27 1 5.4413 2.38302 10.8917 1.09918 0.925087 -0.247463
28 1 5.60476 2.72079 5.24903 -0.958506 -0.87521 0.32367
29 1 1.26715 1.14995 3.98465 0.452553 0.70585 -0.256597
30 1 1.49171 1.1312 9.61979 0.0207313 -0.847975 -1.1713
31 1 5.67051 8.15368 10.6408 -0.573505 1.01151 2.31085
32 1 5.3892 8.16246 5.35641 0.62436 -0.264118 0.25962
33 1 4.1618 4.02416 3.87154 -1.14256 -0.923695 0.980471
34 1 4.11464 9.47973 9.37674 -0.632867 -0.445858 0.359621
35 1 9.47342 4.01441 3.86797 0.915083 -0.318809 0.88261
36 1 9.73148 3.70729 9.38864 -0.164465 2.80348 0.560192
37 1 9.50848 9.7704 3.90226 -0.582135 -1.66641 0.14347
38 1 9.5335 9.5541 9.54354 -0.158996 0.797855 -0.0603616
39 1 2.82714 10.7908 10.8756 -1.56544 0.653854 0.00791796
40 1 2.51867 10.9369 5.34149 -0.0240396 1.49963 0.03123
41 1 2.85802 5.42895 10.9072 -1.24596 -1.2051 -1.55355
42 1 2.79747 5.32496 5.41414 -1.26485 -0.529202 -0.281605
43 1 8.17774 11.083 10.8667 0.0810846 -0.764276 -0.118753
44 1 8.1312 11.0744 5.2889 0.233419 -0.606748 0.981458
45 1 8.39919 5.25156 10.9374 0.566183 0.355293 -0.710944
46 1 4.18546 3.87103 9.38666 -0.363764 1.02426 1.24012
47 1 3.95815 9.53126 4.20012 -0.347942 -0.110712 -2.25204
48 1 8.21135 5.48708 5.2683 1.30232 0.435548 1.23738
49 1 4.26044 6.79245 0.994232 -0.343061 1.08371 2.35815
50 1 4.07284 6.78444 6.75698 -0.624873 0.180575 0.209739
51 1 10.0024 1.19826 1.10315 -2.084 1.48819 -0.095156
52 1 9.57582 1.16141 6.83793 0.918096 -0.0758178 -1.20211
53 1 9.63088 6.94391 1.40019 0.20534 -1.50546 -1.79415
54 1 9.66953 7.05295 6.67204 -0.301376 -2.03757 -0.0642128
55 1 2.71997 2.58746 2.49307 -0.408938 0.00726674 1.2494
56 1 2.75764 2.5485 8.13043 -0.565949 -0.458312 -0.822034
57 1 2.7126 8.20273 2.46202 1.18096 -1.14567 1.15618
58 1 2.52825 8.08823 8.18429 0.266166 1.87886 -2.02109
59 1 8.34554 2.54247 2.37587 0.151239 -1.3452 2.3231
60 1 8.13793 2.50992 8.05825 -0.0368765 0.613324 0.288326
61 1 4.20546 1.02823 1.37833 -0.403558 0.353765 -0.343974
62 1 4.13091 1.25556 6.61871 0.619344 -0.821317 0.679474
63 1 8.12592 8.24744 2.45487 0.459892 0.601107 2.15675
64 1 8.17233 8.36018 8.087 0.0563307 -1.67858 -0.24337
