ITEM: TIMESTEP
370
ITEM: NUMBER OF ATOMS
64
ITEM: BOX BOUNDS xy xz yz pp pp pp
-3.1140387182500001e-01 1.1087275714303001e+01 -1.5890782108999999e-02
0.0000000000000000e+00 1.1635512432473000e+01 -2.9551308971599999e-01
0.0000000000000000e+00 1.1127300537966001e+01 2.9068760474299998e-01
ITEM: ATOMS id type x y z fx fy fz
1 1 1.16788 4.14014 1.26827 2.40792 -0.948285 -0.5199
2 1 1.15271 9.77855 6.93642 0.109175 2.00156 -1.64845
3 1 6.90985 4.23761 1.21541 -0.0842972 -1.36924 0.201168
4 1 6.71808 4.37734 6.70748 -0.23371 -2.98495 1.67403
5 1 6.90192 9.70171 1.20137 -0.090396 0.574925 -0.0879332
6 1 6.72714 9.8325 6.7297 0.23448 0.201006 1.13984
7 1 11.0133 11.2017 2.64728 -0.105949 -0.276358 0.188407
8 1 10.9244 11.2801 8.32956 -0.764363 -0.0583801 -0.752231
9 1 11.0191 5.54632 2.54151 -0.540959 1.51766 1.80338
10 1 10.8672 5.69407 8.12605 -1.54888 -1.31402 0.644737
11 1 5.66575 11.1439 2.66402 -1.38917 2.51907 -0.5409
12 1 5.38287 11.3183 8.22066 -0.663778 0.0264783 -0.834214
13 1 5.45566 5.73575 2.61046 0.497495 -0.621126 -0.1832
14 1 1.14303 4.23956 6.79011 0.980189 0.53577 0.154448
15 1 1.38508 9.84902 1.22516 -0.602159 -0.0605596 0.307998
16 1 5.26597 5.60819 8.25137 -0.174393 0.772176 -0.95624
17 1 1.25 7.0188 4.19922 0.334719 0.628887 -3.18444
18 1 0.982294 7.17805 9.50614 0.798315 -0.144153 0.994677
19 1 6.94596 1.42221 4.17063 -0.743303 -1.36273 -1.07702
20 1 6.61928 1.49642 9.57893 0.0122081 -0.0166457 -0.174724
21 1 6.70673 7.12133 4.14943 0.592562 -0.405501 -1.74011
22 1 6.49174 7.08053 9.61918 1.24188 0.0535996 -0.294576
23 1 10.8368 2.84506 11.0384 -0.507121 0.319224 -0.606877
24 1 10.9619 2.9167 5.36008 0.31979 -1.89479 -0.10598
25 1 10.8715 8.61627 11.0745 -1.72061 -0.675889 -0.407154
26 1 10.8787 8.4353 5.47175 0.717403 -0.148058 -0.0124256
27 1 5.21898 3.01146 10.8643 0.205547 -0.192516 1.50493
28 1 5.32753 2.77285 5.33245 0.452697 0.643701 0.864785
29 1 1.29419 1.3831 3.91912 0.41735 -0.31354 1.8713
30 1 1.11835 1.43917 9.63013 0.634884 0.512416 0.0022571
31 1 5.23006 8.66631 10.9102 -0.43328 -1.0095 1.00331
32 1 5.29275 8.53095 5.33098 0.3443 0.0526775 0.798218
33 1 4.10421 4.34704 3.94882 -0.60225 -1.08555 0.254556
34 1 3.86121 9.92117 9.51807 0.0927951 1.17616 0.454586
35 1 9.6101 4.18697 3.96619 -0.578083 0.228248 -0.275134
36 1 9.36315 4.17319 9.60775 1.57943 0.383112 -1.68803
37 1 9.58211 9.80379 4.14326 0.342413 -0.235922 -2.51541
38 1 9.35104 9.91354 9.64447 0.383479 0.0109949 -0.409
39 1 2.53963 11.4041 10.9993 0.111397 0.555246 -0.363472
40 1 2.68602 11.266 5.51435 -1.92 0.0952765 -0.825178
41 1 2.39267 5.7841 10.9524 -0.127935 0.849547 1.05173
42 1 2.67935 5.63461 5.41771 -0.0422252 0.02809 0.710698
43 1 7.93596 11.4289 10.9363 0.696265 -0.119442 0.346228
44 1 8.23492 11.1207 5.39516 -0.515681 1.59936 0.880345
45 1 8.12686 5.71905 10.8067 -1.64859 0.0665926 0.90938
46 1 3.7202 4.3581 9.60308 1.21406 0.516159 0.482992
47 1 4.04769 9.96467 3.96529 -0.212359 -0.132888 0.254739
48 1 8.02886 5.53503 5.2697 1.53619 0.938967 0.102784
49 1 4.02258 7.07664 1.33807 0.264736 -0.90357 -2.23016
50 1 4.02706 7.20563 6.8191 -0.929143 -1.17263 0.175181
51 1 9.69526 1.19188 1.1916 -0.701636 0.0503369 0.602586
52 1 9.68576 1.27573 6.71565 -0.610344 0.409642 0.537068
53 1 9.46303 6.87397 1.17199 2.22411 0.838915 0.255768
54 1 9.45428 7.01011 6.63285 -0.355657 -0.667027 1.19223
55 1 2.78931 2.75351 2.64705 -1.16383 1.03328 -0.388347
56 1 2.54243 2.97195 8.28947 -0.848628 -2.09542 -1.44396
57 1 2.70701 8.494 2.58612 -1.31248 -0.894133 2.30706
58 1 2.49766 8.53711 8.22047 0.762471 -1.20494 0.229906
59 1 8.3109 2.647 2.66032 -0.45495 0.832991 -1.07665
60 1 8.11104 2.65549 8.10398 -0.351465 1.70733 -0.812324
61 1 4.08041 1.35999 1.27594 2.11356 -1.38348 0.0698235
62 1 3.91914 1.41146 6.84335 0.514547 0.72724 0.544392
63 1 8.21038 8.35009 2.60191 0.290516 0.153691 1.0551
64 1 8.08127 8.31171 8.20168 -0.449269 1.1309 -0.416622
