ITEM: TIMESTEP
580
ITEM: NUMBER OF ATOMS
64
ITEM: BOX BOUNDS xy xz yz pp pp pp
-3.1140387182500001e-01 1.1087275714303001e+01 -1.5890782108999999e-02
0.0000000000000000e+00 1.1635512432473000e+01 -2.9551308971599999e-01
0.0000000000000000e+00 1.1127300537966001e+01 2.9068760474299998e-01
ITEM: ATOMS id type x y z fx fy fz
1 1 1.25856 4.23803 1.1882 -0.122224 -1.86237 1.28977
2 1 1.12551 9.94546 6.75814 -0.125179 -0.0469193 1.2036
3 1 6.84776 4.03075 1.29235 -0.826327 2.36816 -0.105518
4 1 6.68217 4.32525 6.62017 -0.33182 -0.519728 1.67135
5 1 6.91493 9.67783 1.30271 -1.62935 0.632286 -2.79775
6 1 6.77286 10.0362 6.79407 -0.956665 -1.71613 -0.0743837
7 1 11.0182 11.2697 2.71445 -0.206785 -1.64925 -1.73256
8 1 10.804 11.3879 8.34929 0.112615 -0.532426 -2.60253
9 1 -0.151639 5.52638 2.83335 0.963616 0.299869 -1.94533
10 1 -0.214138 5.64787 8.08799 -0.570818 -0.331493 0.783745
11 1 5.65839 11.2057 2.63847 -0.792576 0.909436 0.146228
12 1 5.3047 11.24 8.25539 0.159423 1.62747 -1.49002
13 1 5.37161 5.62838 2.62953 1.36731 -0.946022 -0.261995
14 1 1.15079 4.14828 6.74346 0.891062 1.30142 0.616417
15 1 1.37797 9.7684 1.20001 -1.31303 1.3966 0.182089
16 1 5.25107 5.64888 8.25347 0.525687 -0.741019 -0.684921
17 1 1.33974 6.94076 4.04508 -0.467322 1.61523 -0.395138
18 1 0.982673 7.16308 9.61742 -0.174038 0.555 -1.09933
19 1 6.98489 1.4652 4.07881 -1.04219 -1.51777 -0.724685
20 1 6.62694 1.54162 9.38657 -0.0266097 0.353797 2.21209
21 1 6.93921 7.02285 3.91775 -2.52785 1.21718 -0.297697
22 1 6.56879 7.08539 9.53945 1.06759 0.072796 0.727307
23 1 -0.23686 2.75999 10.961 -0.393351 1.08559 0.951416
24 1 -0.0511529 2.74187 5.37219 -0.458205 -0.612476 -0.543614
25 1 10.6669 8.592 10.9824 0.911699 -0.441205 0.710314
26 1 -0.171609 8.34616 5.4145 0.691723 0.742382 -0.360583
27 1 5.29396 2.99802 11.0746 0.0301134 -0.903647 -2.68656
28 1 5.33751 2.69209 5.34666 0.629708 0.254051 0.924837
29 1 1.30423 1.24248 3.97546 0.387411 1.7129 0.187335
30 1 1.1094 1.43789 9.58194 0.620008 0.396158 0.268376
31 1 5.10552 8.49838 10.9144 1.56932 0.775631 1.56669
32 1 5.40592 8.37503 5.41749 0.844617 1.62368 -0.92038
33 1 4.13629 4.22159 4.11007 -1.86955 -0.439189 -1.3454
34 1 3.93461 10.0062 9.56467 -1.50363 -0.122391 0.944002
35 1 9.59344 4.11362 4.06072 -0.74026 0.452881 -0.0726
36 1 9.51421 4.15377 9.60195 -0.579804 0.916374 -0.87037
37 1 9.5833 9.8176 4.04025 0.349941 -0.38138 -0.469987
38 1 9.41109 9.90291 9.55973 -0.550116 0.857636 0.29918
39 1 2.85793 11.2787 -0.132581 -0.0310293 -1.42618 -0.25729
40 1 2.5916 11.3796 5.45766 0.245309 -1.43939 -0.470807
41 1 2.30761 5.87291 10.9381 0.632319 -0.0867288 1.20511
42 1 2.64608 5.67084 5.45905 0.449776 -1.04398 0.39218
43 1 8.01666 11.4136 10.9179 -0.857376 -0.135153 -0.254731
44 1 8.26019 11.179 5.42919 -0.479803 1.20412 -0.591984
45 1 8.00493 5.57238 10.959 0.0334783 1.11499 -0.501401
46 1 3.74707 4.46248 9.79339 0.954187 -0.899349 -0.938555
47 1 4.03597 9.96698 3.96243 0.824742 -0.216405 1.57487
48 1 8.01836 5.67142 5.22169 2.41103 -1.13433 1.92371
49 1 3.9607 6.9421 1.30794 -0.0721051 0.897061 -0.430628
50 1 4.08679 7.06941 6.82974 -2.12579 0.77039 0.713513
51 1 9.59302 1.17724 1.22508 0.268183 0.888685 0.326034
52 1 9.51912 1.41859 6.62629 0.673305 -0.397568 2.41863
53 1 9.60637 6.82323 1.24956 -0.208791 0.535825 0.116216
54 1 9.48935 7.06265 6.73135 -1.22494 -0.346705 0.406051
55 1 2.76263 2.67737 2.57433 -0.259141 1.38093 0.40256
56 1 2.47212 2.98301 8.35287 1.04147 -1.42031 -1.47937
57 1 2.68674 8.59437 2.68222 -0.140321 -2.32745 -0.00768243
58 1 2.51375 8.52455 8.26549 0.453481 -0.213418 -1.22755
59 1 8.21156 2.82856 2.53638 1.79979 -1.83327 1.20752
60 1 8.11808 2.90975 8.06032 -0.0662768 -0.270965 -0.275673
61 1 4.25541 1.33409 1.20323 -0.359098 -1.00521 1.00238
62 1 3.86611 1.39062 6.84486 0.486293 1.08637 1.46554
63 1 8.21165 8.43194 2.56059 1.62232 -1.22695 0.700729
64 1 8.05573 8.53699 8.20095 0.0148536 -0.858148 -0.622794
