ITEM: TIMESTEP
670
ITEM: NUMBER OF ATOMS
64
ITEM: BOX BOUNDS xy xz yz pp pp pp
-3.1140387182500001e-01 1.1087275714303001e+01 -1.5890782108999999e-02
0.0000000000000000e+00 1.1635512432473000e+01 -2.9551308971599999e-01
0.0000000000000000e+00 1.1127300537966001e+01 2.9068760474299998e-01
ITEM: ATOMS id type x y z fx fy fz
1 1 1.24789 4.0373 1.29311 0.68841 -0.0942069 -0.380455
2 1 1.1687 10.0387 6.82092 0.162889 -0.37109 -0.582371
3 1 6.8756 4.11883 1.00199 1.10049 -0.379879 1.33562
4 1 6.5546 4.36673 6.87078 1.04709 -0.514032 -0.912992
5 1 6.84051 9.79671 0.978876 0.283791 -0.293678 2.85887
6 1 6.70654 9.96056 6.83964 0.0979968 0.0243409 -0.677724
7 1 10.8984 11.15 2.59631 0.594487 0.1513 0.166875
8 1 10.7965 11.373 8.40282 1.47002 0.592766 -0.693703
9 1 0.0821742 5.61131 2.57959 -1.65403 -0.440047 0.935843
10 1 10.7634 5.7803 8.3119 0.991459 -0.621208 -1.27087
11 1 5.47874 11.2109 2.59678 0.970358 -1.34466 0.176898
12 1 5.25352 11.4092 8.05628 0.411616 -0.696785 1.62726
13 1 5.71049 5.32333 2.64827 -2.19514 1.9539 -0.147524
14 1 1.09072 4.41694 6.78415 0.0181457 -1.56006 0.490779
15 1 1.22444 9.75187 1.13304 1.02567 -1.512 2.20936
16 1 5.30203 5.72865 8.33477 -0.522599 -0.351913 0.297243
17 1 1.43679 7.00817 3.97009 -0.667645 -0.827619 1.08542
18 1 1.06162 7.11709 9.63919 0.563815 0.932729 0.0121552
19 1 6.73305 1.31592 4.05123 0.598276 0.757719 -0.0957897
20 1 6.57706 1.56027 9.48329 0.705202 -0.06254 -0.500445
21 1 6.73082 7.13364 3.99029 0.550731 -1.16416 1.38586
22 1 6.7734 7.23304 9.44546 -0.410023 -0.30474 0.979299
23 1 10.6427 2.90657 10.9662 0.673247 0.641263 0.0554344
24 1 0.0432923 2.74232 5.2552 -0.798028 0.837528 1.03015
25 1 10.748 8.55395 10.9453 -0.0256506 0.253162 0.204991
26 1 0.00384463 8.39555 5.33554 -1.10679 0.0289612 0.86569
27 1 5.22506 2.84983 11.0202 -0.168385 -0.0147381 -0.610753
28 1 5.38352 2.67743 5.62292 -0.689841 0.90709 -1.86717
29 1 1.29039 1.26436 3.96036 -0.377789 0.293527 -1.22317
30 1 1.19957 1.62333 9.75811 -1.32145 -1.45455 -0.946385
31 1 5.24516 8.52848 10.8941 -0.269724 -0.384449 0.223892
32 1 5.18786 8.53604 5.50674 0.902446 -1.72812 0.418139
33 1 4.12231 4.13197 4.14402 -0.0874139 -0.0987011 -0.410236
34 1 3.95348 10.0732 9.57594 -1.02314 -0.561593 0.067246
35 1 9.64906 4.14219 3.9795 0.152368 0.31723 -0.636701
36 1 9.36144 4.34692 9.44418 -0.158088 -1.02502 0.765406
37 1 9.5526 9.81595 4.07827 -0.313338 0.702727 0.396292
38 1 9.34785 9.94848 9.65224 0.0764911 0.651476 -0.46388
39 1 2.38619 11.3144 11.0416 1.51472 1.40601 -0.519071
40 1 2.6478 11.2926 5.15761 -1.02891 -0.586522 2.81381
41 1 2.4085 5.75194 11.0949 -0.130457 -0.809796 -0.710405
42 1 2.68048 5.55982 5.5463 -0.107343 0.638334 -1.20696
43 1 7.94022 11.5433 10.9114 0.376032 -0.385092 -0.336905
44 1 8.15908 11.4432 5.49546 0.864609 -1.81394 -0.965681
45 1 8.13948 5.8178 10.9291 -0.753056 0.240126 0.0451199
46 1 3.82224 4.27225 9.75655 -0.265647 0.260665 -1.59168
47 1 4.00157 9.90799 4.00587 0.440962 -1.48298 -1.22133
48 1 8.19894 5.48902 5.37107 -1.38114 1.66522 -0.488646
49 1 4.11965 6.75911 1.2674 1.69259 0.616972 0.146021
50 1 3.76929 7.00961 7.05657 1.52593 1.66608 -1.58974
51 1 9.61142 1.263 1.26081 -0.569985 -0.0106508 -0.12245
52 1 9.81227 1.40424 6.75734 -1.97064 0.460596 0.0467823
53 1 9.6689 7.05737 1.29459 -0.0949838 -1.08756 0.0312733
54 1 9.50517 6.95859 6.731 0.493453 1.68386 -0.532228
55 1 2.78312 2.68273 2.69969 -0.142731 0.00725382 -0.78432
56 1 2.43775 2.87433 8.14788 0.824738 0.380866 0.628702
57 1 2.76885 8.22607 2.58848 -0.335894 2.74251 -0.95349
58 1 2.49335 8.64144 8.25967 -0.307591 -0.641362 0.276436
59 1 8.18528 2.75071 2.59703 0.328836 -0.595692 0.0358422
60 1 8.07573 2.8455 7.88709 0.892725 0.163495 2.31905
61 1 4.18401 1.15017 1.28279 -1.47058 0.889139 -0.407242
62 1 3.82829 1.30948 6.77346 -0.294851 1.04557 -0.0318972
63 1 8.23871 8.44655 2.64726 -0.854502 0.366174 -0.829405
64 1 8.19706 8.55639 8.07989 -0.542218 -0.0592239 -0.22013
