ITEM: TIMESTEP
720
ITEM: NUMBER OF ATOMS
64
ITEM: BOX BOUNDS xy xz yz pp pp pp
-3.1140387182500001e-01 1.1087275714303001e+01 -1.5890782108999999e-02
0.0000000000000000e+00 1.1635512432473000e+01 -2.9551308971599999e-01
0.0000000000000000e+00 1.1127300537966001e+01 2.9068760474299998e-01
ITEM: ATOMS id type x y z fx fy fz
1 1 1.29735 4.08304 1.20206 0.698109 1.02578 0.195038
2 1 1.2737 9.89114 6.78146 -0.953945 -0.100389 -0.0422942
3 1 6.769 4.07305 1.35285 0.212319 0.903751 -0.669058
4 1 6.76373 4.21828 6.73083 0.0888857 -0.702251 0.809983
5 1 6.85394 9.8482 1.49526 0.340389 -1.37476 -3.36517
6 1 6.70566 9.84857 6.94981 0.700456 0.266813 -1.03525
7 1 0.0294563 11.325 2.67995 -0.544295 -0.584911 -0.406474
8 1 -0.352727 11.3142 8.07216 0.69215 -0.396944 0.238127
9 1 10.8803 5.46565 2.57159 0.567497 0.28391 0.261011
10 1 10.9142 5.54337 8.10222 -0.97951 1.34613 1.17298
11 1 5.40956 11.2003 2.60084 -0.112218 1.85613 -0.03194
12 1 5.3935 11.421 8.12362 -0.0497817 -0.464763 1.08614
13 1 5.14407 5.58178 2.51883 3.00711 0.0349332 1.47889
14 1 1.14759 4.15838 6.78441 1.21849 0.291562 0.104371
15 1 1.41095 9.81295 1.3044 -0.547294 1.7014 -1.78757
16 1 5.38688 5.5309 8.04704 -0.417723 1.67693 0.220621
17 1 1.17363 6.89222 4.05184 0.276628 2.21087 -1.7145
18 1 1.0393 7.25114 9.46345 0.587875 -1.23933 0.152348
19 1 6.74636 1.37506 3.94379 0.401859 -0.21015 0.286652
20 1 6.65998 1.36767 9.754 0.287101 0.345922 -0.838095
21 1 6.82753 6.88966 4.00854 -0.748086 1.4498 -1.88697
22 1 6.52907 7.01605 9.61803 -0.264912 1.26283 0.477676
23 1 11.0036 2.92713 10.9238 -1.40632 -0.687047 -0.418519
24 1 10.8822 2.72435 5.54212 0.346403 -0.0387985 -0.916959
25 1 10.9069 8.54731 11.0571 -1.01857 0.544229 -0.635582
26 1 10.9245 8.34116 5.50106 -0.708826 1.48093 -1.05293
27 1 5.32663 2.92641 10.9746 -0.626409 -0.0976583 0.439571
28 1 5.41352 2.82802 5.40163 -0.420946 -0.251851 -0.787211
29 1 1.24772 1.37635 4.12003 0.421116 -0.0646939 0.356073
30 1 1.05966 1.40517 9.4317 1.37033 1.3138 -0.325076
31 1 5.11366 8.68584 10.993 1.65009 0.112344 0.323286
32 1 5.46584 8.55576 5.35865 0.141479 -0.913822 -0.466259
33 1 3.92737 4.2452 4.02338 0.0226892 -0.972675 -0.0564317
34 1 3.82289 10.1069 9.4286 0.575455 -0.712637 0.992315
35 1 9.63271 4.10976 4.12031 -1.73646 0.423055 -0.965548
36 1 9.49168 4.23548 9.65826 -0.457714 0.43294 -0.75679
37 1 9.61145 9.97514 3.96829 0.410971 -1.82941 0.989965
38 1 9.43323 9.93928 9.583 0.532523 0.128033 0.861568
39 1 2.51535 11.5966 10.8682 -0.772943 -1.70384 1.0281
40 1 2.70548 11.3686 5.56661 -0.593096 -0.604624 -1.80861
41 1 2.41815 5.83182 10.8463 0.960346 -0.208468 0.784843
42 1 2.51696 5.58599 5.37326 0.554183 -0.246782 0.45551
43 1 8.13368 11.3736 11.0637 -0.892982 -0.168853 0.255188
44 1 8.05778 11.255 5.36313 0.464082 0.413661 0.8355
45 1 7.96947 5.66188 10.988 -0.618963 -0.5498 -0.313145
46 1 4.05895 4.35748 9.55274 -1.73945 -0.028788 0.40966
47 1 4.06778 9.99073 3.95983 -0.705255 -0.442911 1.89483
48 1 8.09649 5.61689 5.49618 1.82001 -0.104746 -0.723082
49 1 3.96829 7.09911 1.30458 -0.720819 -0.174752 -1.51064
50 1 4.08378 7.01824 6.5566 -0.953734 0.37548 1.4516
51 1 9.78803 1.31138 1.17173 -0.0872542 -0.276521 0.281965
52 1 9.38017 1.50297 6.82963 -0.520604 -1.44091 -0.0783976
53 1 9.55544 6.82246 1.05286 1.13799 0.958637 1.37696
54 1 9.41594 7.1369 6.9838 0.230097 -1.16735 -1.28408
55 1 2.6013 2.69819 2.6363 0.625391 0.516166 0.448115
56 1 2.74501 2.89252 8.14167 -2.13781 -0.737677 0.977918
57 1 2.64478 8.59639 2.70298 -0.447299 -2.91896 1.60422
58 1 2.63306 8.41982 8.11407 0.397642 0.275623 -0.442903
59 1 8.26774 2.67318 2.49644 0.51124 0.254666 1.80652
60 1 7.99689 2.83381 8.31953 0.658364 -0.0848334 -0.238268
61 1 4.07141 1.38357 1.23641 0.246958 -0.4924 -0.249567
62 1 4.02892 1.43109 6.83846 0.640441 0.698991 -0.489093
63 1 8.3666 8.37398 2.49876 -0.973625 -0.92263 1.88107
64 1 8.05963 8.43741 8.4042 -0.639838 0.33162 -0.642193
