ITEM: TIMESTEP
750
ITEM: NUMBER OF ATOMS
64
ITEM: BOX BOUNDS xy xz yz pp pp pp
-3.1140387182500001e-01 1.1087275714303001e+01 -1.5890782108999999e-02
0.0000000000000000e+00 1.1635512432473000e+01 -2.9551308971599999e-01
0.0000000000000000e+00 1.1127300537966001e+01 2.9068760474299998e-01
ITEM: ATOMS id type x y z fx fy fz
1 1 1.33498 4.2112 1.1754 0.309714 -1.16445 0.536122
2 1 1.11893 9.93736 6.77002 0.372566 0.321749 0.182305
3 1 6.91926 3.96723 1.13079 -0.445434 2.61373 -0.124642
4 1 6.78219 4.29987 6.89096 -0.512752 -0.279772 -0.419874
5 1 6.88505 9.78986 1.20541 -0.610895 -0.211541 0.155421
6 1 6.63782 9.88535 6.70744 0.677826 0.0353304 0.555123
7 1 10.7763 11.14 2.7262 1.98798 -0.00364552 -1.20591
8 1 -0.230354 11.3614 8.31864 0.772098 -0.480204 -0.565868
9 1 11.1732 5.54232 2.65242 -2.29488 0.439458 -1.05845
10 1 10.8351 5.83458 8.3856 0.629702 -0.411811 -1.61964
11 1 5.33459 11.1091 2.56848 1.26198 1.34779 0.468208
12 1 5.2665 11.2614 8.14474 0.838543 1.27649 1.40268
13 1 5.62916 5.50743 2.68542 0.395133 -1.02537 -0.646929
14 1 1.03882 4.47422 6.83405 0.534759 -2.17504 -0.56334
15 1 1.24222 9.72036 1.23655 -0.614651 0.993439 0.230968
16 1 5.29363 5.77427 8.26419 0.370508 -0.870561 -0.256866
17 1 1.11899 6.9869 4.02099 3.12019 1.09324 -1.44159
18 1 1.35851 7.05947 9.60248 -0.687912 1.59558 -0.317403
19 1 6.79923 1.28132 4.05781 -1.12377 0.24843 -1.63592
20 1 6.73371 1.53754 9.6287 -1.38211 -1.20437 -1.17845
21 1 6.82379 7.00835 4.08561 -0.988915 0.750586 -0.426476
22 1 6.68118 7.36795 9.4987 0.651013 -1.29997 0.134563
23 1 -0.343371 3.01137 10.9587 0.0784747 -0.625126 0.577011
24 1 -0.250967 2.8263 5.33473 1.26746 -0.0737423 1.15963
25 1 -0.204042 8.51143 10.8883 -0.794834 0.459685 0.675404
26 1 11.0449 8.42317 5.33616 -1.97965 0.988046 0.65618
27 1 5.1809 2.87962 11.0093 0.144094 -0.850504 -0.422152
28 1 5.52475 2.66913 5.521 -1.51649 0.741606 -0.101058
29 1 1.19977 1.31155 3.94423 -0.605274 0.771868 0.159319
30 1 1.15341 1.45487 9.69326 -1.10075 1.84666 -1.95336
31 1 5.24355 8.52452 10.9435 0.910561 0.18415 1.0534
32 1 5.27135 8.36386 5.41571 0.750727 0.116552 -0.075133
33 1 4.2075 4.26011 4.08856 -1.80116 -1.44758 0.123232
34 1 3.93421 9.92132 9.71751 -1.02943 1.18558 -1.33969
35 1 9.60741 4.25362 3.93301 -0.903433 -0.495262 -0.144049
36 1 9.40731 4.46122 9.55025 -0.314152 -1.16641 0.557829
37 1 9.37993 9.88962 4.12248 1.61839 -0.548484 0.662743
38 1 9.39101 9.99471 9.55535 0.557492 0.197939 1.05342
39 1 2.33816 11.3935 10.9058 1.36922 -0.953286 1.37159
40 1 2.53339 11.3012 5.26649 0.314322 -1.46985 -0.0199104
41 1 2.61818 5.68253 11.0289 0.143392 -0.503552 -0.605745
42 1 2.58958 5.72444 5.39278 0.398232 -1.15413 -0.0569456
43 1 8.04524 11.4772 11.0369 -0.139995 -0.32373 -0.502621
44 1 8.10754 11.3703 5.42974 0.364316 -0.736839 0.905324
45 1 8.07514 5.92864 10.9625 -0.921569 -0.676186 0.652297
46 1 3.88764 4.1636 9.54388 -0.0723981 0.91963 -0.412766
47 1 4.05118 9.74408 3.95397 -1.63811 0.0190127 -0.0420803
48 1 8.08058 5.58892 5.2842 1.86593 -0.282814 1.97631
49 1 4.368 6.6847 1.24681 -1.8773 1.94471 -0.505539
50 1 3.87079 7.07175 6.83465 0.430352 0.337239 -0.0302321
51 1 9.59185 1.2972 1.35365 0.373814 0.607374 -0.977214
52 1 9.64824 1.27672 6.87387 -1.32524 1.71914 -1.10903
53 1 9.61146 7.14332 1.40498 0.833834 -1.40539 -0.647839
54 1 9.5626 7.01991 6.72648 -0.483176 0.695533 0.0794726
55 1 2.68241 2.73448 2.65474 0.528535 0.811626 0.212603
56 1 2.49947 2.83181 8.03164 -0.343197 -0.327606 0.811037
57 1 2.71962 8.24958 2.37804 -0.00608535 -0.700084 2.43207
58 1 2.61614 8.68619 8.12989 -0.458629 -1.43323 0.75159
59 1 8.12016 2.7833 2.60229 1.4941 -1.28954 1.10364
60 1 8.1765 2.80668 8.147 0.216371 0.61704 0.533816
61 1 3.93053 1.19538 1.20566 0.960231 0.312408 0.473129
62 1 3.84087 1.21961 6.69331 1.01608 1.62275 0.711367
63 1 8.11801 8.51931 2.81151 0.0185808 -0.847202 -1.28061
64 1 8.25541 8.59837 8.10602 -1.60433 -0.377078 -0.670481
