ITEM: TIMESTEP
840
ITEM: NUMBER OF ATOMS
64
ITEM: BOX BOUNDS xy xz yz pp pp pp
-3.1140387182500001e-01 1.1087275714303001e+01 -1.5890782108999999e-02
0.0000000000000000e+00 1.1635512432473000e+01 -2.9551308971599999e-01
0.0000000000000000e+00 1.1127300537966001e+01 2.9068760474299998e-01
ITEM: ATOMS id type x y z fx fy fz
1 1 1.32896 4.20126 1.28221 0.465694 0.804268 -1.81496
2 1 1.20697 9.96935 6.67195 0.183865 -1.23821 0.698296
3 1 6.76198 4.09222 1.19963 0.832111 -0.422209 0.509504
4 1 6.64146 4.11088 6.85554 1.57398 0.0656588 -0.798782
5 1 6.83541 9.81752 1.17609 -0.081808 1.38253 2.29699
6 1 6.64672 9.91813 6.81519 -0.206791 0.754555 0.324886
7 1 0.0494995 11.2543 2.81762 -1.11151 0.300481 -0.907452
8 1 -0.112592 11.2004 8.15649 -0.863579 1.29505 0.140373
9 1 10.9785 5.56651 2.63392 0.338734 -0.780174 0.888282
10 1 10.9181 5.6402 8.34081 0.91766 -1.01658 -1.97128
11 1 5.4501 11.4421 2.61604 -0.570816 -3.31265 0.0432812
12 1 5.28429 11.4722 8.34024 0.80917 -2.13275 -1.14033
13 1 5.5247 5.559 2.64593 -1.60174 -0.930425 -0.337068
14 1 1.2445 4.27666 6.64116 -1.77866 -0.177462 2.32884
15 1 1.21402 10.015 1.17172 0.436249 -3.68693 0.862739
16 1 5.45689 5.58206 8.09446 -1.20648 1.37657 0.539326
17 1 1.17464 7.07955 3.99968 -0.740192 0.143404 0.271624
18 1 1.11959 7.14408 9.51698 1.22239 0.163104 0.634477
19 1 6.83459 1.33053 3.97045 -0.224118 0.602495 1.65524
20 1 6.63966 1.47513 9.64009 1.33371 0.223132 0.549809
21 1 6.75793 6.92811 3.9698 1.67215 0.965583 1.34056
22 1 6.60258 7.21702 9.53486 0.0449294 -0.136399 0.500851
23 1 -0.264902 2.96485 11.081 0.595255 -0.865116 -1.94071
24 1 10.8041 2.73565 5.55694 0.438128 0.638349 -1.33478
25 1 -0.28596 8.48569 10.937 0.257499 1.4194 0.661682
26 1 10.7445 8.45766 5.42637 1.36262 -1.02659 0.752536
27 1 5.17476 2.86898 10.9404 0.517178 0.564543 -0.285292
28 1 5.33765 2.73133 5.47566 0.956392 1.00327 -2.75478
29 1 1.28521 1.48823 4.09845 0.0167501 -0.0987696 0.0555346
30 1 1.18714 1.46469 9.46893 -0.62375 0.97625 1.46061
31 1 5.36731 8.74654 11.0281 -2.29399 -2.0381 -1.09041
32 1 5.39778 8.39714 5.41509 -0.662154 0.611325 -0.878467
33 1 3.86888 4.22325 3.99524 1.89931 -0.117116 0.627368
34 1 3.84215 10.0135 9.64652 0.0509602 0.0917159 -0.0945634
35 1 9.5 4.14472 3.95113 0.420355 0.0761327 1.39183
36 1 9.41304 4.41616 9.64558 -0.28194 -0.61799 1.02586
37 1 9.59886 9.78502 3.96779 -0.972125 0.929953 -0.0184034
38 1 9.48259 9.94885 9.50169 -0.419427 -0.398232 0.756935
39 1 2.4851 11.448 11.0957 -0.0755915 0.27636 -1.78902
40 1 2.67011 11.4628 5.54939 -0.81438 -1.43234 -1.79044
41 1 2.66884 5.71677 10.8445 -1.54266 -0.232557 0.408991
42 1 2.46386 5.70311 5.3384 1.30301 -0.103728 -0.131613
43 1 8.04039 11.2786 11.0027 0.920591 1.92275 -0.53946
44 1 8.18414 11.2461 5.40064 -0.554559 -0.22477 -0.182389
45 1 7.8908 5.85241 11.0424 0.923897 -0.54729 -0.460385
46 1 3.99225 4.21921 9.32746 -0.87218 0.272256 1.43838
47 1 3.87169 9.93664 4.0751 1.44826 -0.823389 -1.46708
48 1 8.14652 5.47401 5.57389 -0.42204 0.869589 -1.89365
49 1 4.14349 6.91641 1.19855 0.528061 0.654114 -0.0915289
50 1 3.9731 6.95769 6.69738 -0.0986982 0.828467 0.789508
51 1 9.72574 1.25134 1.282 -0.59509 -0.515966 0.200966
52 1 9.42159 1.32958 6.89476 0.663412 -0.0804401 0.241711
53 1 9.707 6.86657 1.33488 -1.47467 1.17357 -1.6545
54 1 9.48503 6.91965 6.97778 -0.509112 1.60361 -0.941663
55 1 2.6303 2.86668 2.54532 0.80598 -1.78929 0.720503
56 1 2.68453 2.74457 7.91213 -0.981976 0.993725 1.60937
57 1 2.58017 8.26157 2.53946 0.47307 2.88535 -0.119094
58 1 2.60434 8.50785 8.16054 -0.125564 -0.0512969 -0.675508
59 1 8.23051 2.65655 2.66612 -0.21882 0.595609 -1.36951
60 1 8.14513 2.9188 8.27687 -0.545859 -1.14176 0.189321
61 1 4.06868 1.29798 1.19417 -0.556011 1.10578 0.747344
62 1 4.17522 1.32306 6.7412 -1.16915 0.0939507 0.78222
63 1 8.21981 8.40656 2.51152 -0.0169352 -0.752019 1.3052
64 1 8.01907 8.57958 8.19876 0.800976 -0.972346 -0.277841
