ITEM: TIMESTEP
90
ITEM: NUMBER OF ATOMS
64
ITEM: BOX BOUNDS xy xz yz pp pp pp
-3.1140387182500001e-01 1.1087275714303001e+01 -1.5890782108999999e-02
0.0000000000000000e+00 1.1635512432473000e+01 -2.9551308971599999e-01
0.0000000000000000e+00 1.1127300537966001e+01 2.9068760474299998e-01
ITEM: ATOMS id type x y z fx fy fz
1 1 1.29773 3.94752 1.19675 1.14674 0.848869 -0.28814
2 1 1.1166 9.9968 6.87546 0.419915 -0.194286 -0.622664
3 1 6.88833 4.12729 1.2738 -0.261713 -0.0991835 -0.590114
4 1 6.70025 4.39224 6.80758 0.412255 -1.46365 0.111686
5 1 6.82248 9.75606 1.17751 0.460932 -0.165639 -0.0586481
6 1 6.69488 9.84438 6.7761 0.0635057 0.698134 0.464506
7 1 10.905 11.3108 2.57804 0.859962 -0.986258 -0.497458
8 1 10.7733 11.431 8.23694 0.21561 -0.663995 -0.443101
9 1 11.1338 5.45661 2.48737 -1.07458 0.489048 1.80622
10 1 10.8343 5.81196 8.25259 -0.0982572 -0.701153 -0.713635
11 1 5.46955 11.0341 2.56954 -1.50644 0.926301 0.0931416
12 1 5.45965 11.5097 8.16337 -0.391119 -1.15848 0.259768
13 1 5.5237 5.49288 2.71206 -0.071249 -0.343882 0.42368
14 1 1.0964 4.31945 6.80145 0.204127 -0.267873 0.277207
15 1 1.31731 9.82487 1.1415 -0.976426 -0.727968 0.845397
16 1 5.33617 5.60677 8.26793 0.206844 1.31644 0.265467
17 1 1.23248 6.88834 4.18726 -0.739127 1.12537 -1.41234
18 1 1.32191 7.15233 9.367 -0.098305 0.231824 1.1353
19 1 6.77356 1.25633 3.86983 -0.36718 0.0317495 1.6226
20 1 6.6203 1.69428 9.61184 0.118276 -0.468512 0.099429
21 1 6.83012 7.02649 4.05876 0.240242 -0.0540378 -0.401637
22 1 6.70461 7.21151 9.65201 -0.332061 -0.792237 0.159616
23 1 10.8074 2.84757 10.9536 0.388975 0.0108187 -0.708678
24 1 10.941 2.77418 5.4122 0.00761771 -0.278298 -0.0982868
25 1 10.9772 8.49756 10.8268 -1.5814 1.05958 0.436995
26 1 10.8778 8.55035 5.44711 0.30067 -0.419887 -0.587039
27 1 5.07318 2.88158 11.0744 0.737827 0.274841 0.203988
28 1 5.50143 2.67954 5.51801 -0.52736 0.826326 -1.73451
29 1 1.20796 1.31864 3.95711 0.144437 -0.240936 1.37139
30 1 1.13965 1.45828 9.41033 0.0144354 0.987119 1.10819
31 1 5.14799 8.51464 11.0989 0.27784 -0.00293157 -0.819841
32 1 5.32955 8.44302 5.38151 0.602028 0.0282262 -0.616494
33 1 4.01578 4.06783 4.03128 0.351134 -0.308931 0.189113
34 1 4.05268 10.01 9.44755 -0.752382 -0.0170523 1.0658
35 1 9.59838 4.10976 3.97013 0.234906 0.99385 0.355962
36 1 9.47594 4.33893 9.70707 -0.116456 0.205857 -1.40402
37 1 9.51341 9.95687 3.93946 0.107122 -0.761424 0.676493
38 1 9.3894 10.1237 9.65661 -0.221464 -0.191725 0.986214
39 1 2.38217 11.3175 10.8006 1.06187 0.294644 -0.190402
40 1 2.63458 11.3367 5.46587 -0.608008 -0.669339 -0.99926
41 1 2.48999 5.74374 11.0104 -0.0503702 -0.485928 -0.364604
42 1 2.64485 5.54181 5.44303 0.253542 -0.0755488 -0.0389379
43 1 7.89473 11.6818 11.0892 1.00626 -1.41302 -1.04736
44 1 8.07704 11.2469 5.44961 0.544697 0.354969 -0.873998
45 1 8.1992 5.80701 11.0581 -1.74976 -0.0767064 -0.164461
46 1 3.83829 4.24932 9.5814 0.384526 0.893705 0.759548
47 1 3.8789 9.76174 3.92971 0.488941 0.389822 0.882497
48 1 8.19147 5.53355 5.42768 0.388926 1.21461 -0.385748
49 1 4.07447 6.78072 1.4704 -0.189124 0.816889 -1.58983
50 1 4.07864 7.01419 6.70802 -0.72927 -0.0994397 0.87425
51 1 9.62665 1.50365 1.31255 -0.398796 -1.52373 -0.49069
52 1 9.50878 1.38195 6.81569 -0.87554 0.694587 -0.60135
53 1 9.69533 7.01783 1.27015 1.13797 -0.246102 -0.4758
54 1 9.40249 7.19493 6.80446 0.658037 -0.655642 0.138621
55 1 2.63879 2.56333 2.61729 0.475852 0.782778 0.13197
56 1 2.59672 2.97508 8.12421 -0.805182 -1.26957 -0.210703
57 1 2.56621 8.25424 2.59256 -0.0591592 0.504174 0.625845
58 1 2.73649 8.60173 8.02663 -0.623761 -0.531769 0.261554
59 1 8.19681 2.72879 2.71667 -0.106895 0.18582 -0.596285
60 1 8.102 2.93853 8.13991 0.467765 0.279729 0.789728
61 1 3.86142 1.06319 1.21984 1.93013 0.334712 -0.00701207
62 1 3.99022 1.41545 6.8053 -0.125832 0.331498 0.165848
63 1 8.24902 8.40586 2.55766 -0.175646 0.0351494 0.652222
64 1 8.1317 8.58289 8.27476 -0.701059 0.187694 -0.207189
