ITEM: TIMESTEP
200
ITEM: NUMBER OF ATOMS
64
ITEM: BOX BOUNDS xy xz yz pp pp pp
-3.1140387182500001e-01 1.1087275714303001e+01 -1.5890782108999999e-02
0.0000000000000000e+00 1.1635512432473000e+01 -2.9551308971599999e-01
0.0000000000000000e+00 1.1127300537966001e+01 2.9068760474299998e-01
ITEM: ATOMS id type x y z fx fy fz
1 1 1.32434 4.30713 1.40163 -1.0609 -0.69301 0.0274625
2 1 1.12115 9.90878 6.86956 0.243593 -0.180387 -0.415645
3 1 6.80427 4.31893 1.62104 -0.285501 -0.0419422 -1.17094
4 1 6.86738 3.92969 7.00487 -0.741478 2.0634 -0.394567
5 1 6.80101 9.88582 0.925092 -0.562406 -0.786192 1.23582
6 1 6.63749 9.72116 6.62524 0.164364 0.346887 0.655718
7 1 0.107933 11.0239 2.75794 -0.295953 -0.740754 0.0491465
8 1 -0.212298 11.2947 8.23479 -0.157216 -0.0894639 -0.12931
9 1 10.8364 5.87456 2.6438 0.233161 -1.4329 -0.704901
10 1 10.7385 5.80221 7.90971 0.315197 0.168826 1.29576
11 1 5.50409 11.2849 2.48942 0.832878 0.396469 1.15674
12 1 5.56323 11.2574 8.07711 -0.506082 -0.591211 -0.838223
13 1 5.13403 5.54352 2.77896 0.275647 0.681115 -0.562357
14 1 0.965322 4.21887 6.81529 -0.325049 0.36327 -1.11804
15 1 1.12895 9.70552 0.99424 0.845095 -0.0382226 1.51404
16 1 5.49899 5.53923 7.94563 0.522335 0.0839297 1.23926
17 1 1.08663 7.14316 4.05322 0.55646 -0.644699 0.0824061
18 1 1.13799 7.12422 9.37883 -0.0363068 -1.63517 0.510644
19 1 6.76768 1.42292 4.13527 -0.229838 -0.63112 -1.27772
20 1 7.63941 1.70489 10.4332 -2.76177 1.87648 -1.3874
21 1 6.70816 6.99196 4.00242 -0.874035 -1.28835 0.19341
22 1 6.60978 7.08046 9.59223 0.504261 -0.494302 -0.990443
23 1 -0.235043 3.0823 10.9316 0.0352847 0.29793 -0.257791
24 1 0.131928 2.20183 5.7777 -0.487052 1.77275 -0.314207
25 1 10.8802 8.39565 10.7012 -1.95786 1.04404 1.02475
26 1 10.8867 8.58336 5.38161 -0.757438 -0.28335 0.248244
27 1 5.79517 2.66546 0.149031 0.257647 -0.150769 -0.863514
28 1 5.46505 2.82758 5.48941 -0.686117 -0.513254 -0.34806
29 1 1.19033 1.09644 4.15873 1.63879 1.22774 -1.06452
30 1 1.04764 1.45337 9.60405 0.222498 0.486458 0.463327
31 1 5.24838 8.37353 10.9722 -0.382834 1.74443 -1.05041
32 1 5.32478 8.34668 5.19274 -0.650368 1.46308 1.0616
33 1 3.66042 4.17352 4.08659 1.276 -0.222332 -0.0622304
34 1 4.24023 9.74947 9.16128 -0.91314 -1.38149 0.514895
35 1 9.2616 4.57538 3.80943 1.58437 -0.285626 0.307816
36 1 9.57715 4.66138 9.64895 0.19655 -0.30385 -0.0333393
37 1 9.52738 9.89825 3.97841 -0.0108593 0.1743 -0.397567
38 1 9.40488 9.91452 9.47958 0.746483 -0.120148 -0.0226866
39 1 2.20048 0.313298 11.2091 0.630027 -0.086165 0.0263826
40 1 2.58908 11.3183 5.59833 0.58043 -0.127144 -0.581768
41 1 2.64743 5.64469 0.0130151 0.272246 0.120262 -0.651374
42 1 2.33649 5.51995 5.40858 -0.334445 0.624346 -0.144229
43 1 8.22554 11.2553 11.0674 0.338045 -1.81833 -0.586167
44 1 8.03586 11.1984 5.33079 1.30901 0.367972 0.643007
45 1 7.95479 5.73545 11.0727 -0.714848 0.345745 -0.405816
46 1 4.59752 3.85172 9.13861 -0.809245 -0.205321 0.975612
47 1 4.26302 10.2473 4.21227 -0.335218 -0.645874 -0.0611754
48 1 8.0644 5.5263 5.3728 -0.525822 0.652044 1.42528
49 1 3.99876 7.10131 1.3016 -0.391943 -0.865757 -0.0600393
50 1 3.79155 7.05716 6.46831 -0.70054 0.166336 0.560573
51 1 9.37918 1.4397 0.590845 1.60341 0.62567 0.471054
52 1 9.54855 1.16197 6.83477 -0.235236 -1.19102 -1.01835
53 1 9.46028 7.00091 1.10686 1.84044 1.02876 -0.172527
54 1 9.31824 7.21353 6.64084 0.751446 -0.598877 0.0517504
55 1 2.61372 2.67447 2.66488 -0.330077 -0.760999 -0.25236
56 1 2.79719 2.46081 8.42307 1.95813 -0.0640468 0.235548
57 1 2.39395 8.35354 2.50694 -0.209743 -0.19109 -0.88104
58 1 2.39359 8.37036 8.00137 2.60823 0.875266 0.0974697
59 1 8.03434 3.01592 3.02544 -0.404741 -0.161075 0.368711
60 1 8.28257 3.07885 8.64549 0.0471184 0.0886509 0.634567
61 1 4.18078 1.28759 1.23698 -1.51334 1.00662 0.291925
62 1 4.18643 1.30681 6.74556 -1.20849 -0.419022 1.30102
63 1 8.27868 8.62414 2.37384 0.0945045 0.513584 -0.467719
64 1 8.09637 8.53977 8.15162 -1.08776 -0.923094 0.0224861
