ITEM: TIMESTEP
130
ITEM: NUMBER OF ATOMS
64
ITEM: BOX BOUNDS xy xz yz pp pp pp
-2.1577784230499999e-01 1.1187578062354000e+01 -2.1577784230499999e-01
-5.8671844649000000e-02 1.1223192087773000e+01 5.3801181254999997e-02
0.0000000000000000e+00 1.0992593606461000e+01 -5.8671844649000000e-02
ITEM: ATOMS id type x y z fx fy fz
1 1 1.2289 4.06863 1.25317 0.499375 0.2609 1.35858
2 1 1.41726 9.6353 6.80795 -0.662757 -1.54336 0.801228
3 1 6.71448 3.94561 1.2442 1.66367 -0.177599 -0.0139779
4 1 7.01572 3.89929 6.67996 -0.765123 1.14415 0.805346
5 1 6.79119 9.80851 1.26626 -0.64612 -0.388165 -0.123626
6 1 6.79589 9.46759 6.70201 -0.0528021 0.943302 0.0695872
7 1 10.9226 10.9591 2.65387 -0.0906399 0.6312 -0.974935
8 1 10.9402 11.1178 7.8604 0.0449539 -0.284002 2.07742
9 1 10.9687 5.58055 2.72755 -0.444911 -2.11154 -2.01014
10 1 11.165 5.316 7.93786 -0.536874 -0.46299 1.5247
11 1 5.15964 11.1843 2.59086 1.38162 -1.89591 0.665138
12 1 5.48428 10.8091 8.11521 -0.879991 1.21808 0.0965774
13 1 5.41018 5.44209 2.38651 0.861582 1.08457 2.13813
14 1 1.57567 3.90206 6.60995 -1.55962 0.96458 -0.26396
15 1 0.941221 9.53849 0.979407 1.7195 0.919068 1.5519
16 1 5.46162 5.28722 8.16534 1.93394 0.531848 -1.52357
17 1 1.19132 6.84765 3.80755 2.72285 0.586679 2.27891
18 1 1.23781 6.6976 9.56713 0.513828 0.2824 -1.16912
19 1 7.05737 1.11248 3.94349 -0.794219 0.567433 0.145851
20 1 6.793 1.24494 9.53587 0.941464 -0.828131 -0.648462
21 1 6.82664 6.86938 3.96928 -0.210245 -0.962617 -0.161198
22 1 6.9886 6.72398 9.4569 -0.455178 -0.110716 -0.137189
23 1 11.0608 2.67177 10.912 1.04896 -0.65241 -0.531835
24 1 11.1218 2.59032 5.33979 -0.161091 0.190578 -0.369489
25 1 10.7389 8.01303 10.8185 0.364227 0.499974 -0.354317
26 1 11.2164 8.19239 5.45707 -0.396977 0.311829 -0.843474
27 1 5.47214 2.46817 11.017 -0.74222 0.713072 -1.94564
28 1 5.56067 2.47788 5.36712 0.150126 0.172564 -0.273317
29 1 1.43887 1.13086 4.04438 -0.707879 0.644082 -0.837177
30 1 1.29533 1.4189 9.37853 0.489385 -1.67096 0.274298
31 1 5.59112 8.16972 10.8201 -0.779475 -0.473786 0.754637
32 1 5.41028 8.19423 5.37581 -0.294064 -0.487292 -0.674352
33 1 4.2663 4.04732 3.90648 -0.415732 -1.11981 0.341133
34 1 4.0818 9.4232 9.4135 0.282558 1.69123 1.8566
35 1 9.65939 4.08405 3.98838 0.589591 -0.699858 0.108327
36 1 9.72333 3.89777 9.52626 0.323219 1.58265 -1.44371
37 1 9.6956 9.55536 4.13657 -0.295639 0.513011 -0.168702
38 1 9.55098 9.67843 9.40424 0.19812 0.0874855 -0.241128
39 1 2.50055 10.9909 10.6711 -0.131308 -0.641747 -0.393445
40 1 2.53973 10.9564 5.34578 0.881341 0.516307 0.40363
41 1 2.69663 5.35033 10.8929 -0.538347 -0.540499 -0.852184
42 1 2.78547 5.35905 5.1648 -1.0322 0.998793 -0.125036
43 1 8.14578 11.1535 10.7537 0.197849 -0.866106 0.653285
44 1 8.15958 10.9148 5.44805 0.0751525 0.745556 -1.04528
45 1 8.23894 5.13574 10.874 0.111649 2.06757 0.329812
46 1 4.16846 3.98682 9.49335 -0.456843 -0.85605 1.26997
47 1 3.92524 9.59443 4.09643 0.829762 0.0535829 -1.66016
48 1 8.44013 5.51851 5.39263 -1.87609 -0.368548 -0.148164
49 1 3.9353 6.78537 1.16846 1.297 1.64373 0.0160161
50 1 4.17096 6.62982 6.62983 -0.424651 0.586808 0.873418
51 1 9.77111 1.25656 1.17698 -0.316368 -0.851826 1.05179
52 1 9.62689 1.25422 6.68776 0.519225 -0.0492052 0.260125
53 1 9.39916 6.79212 1.43711 0.0460752 -0.0338529 -1.57616
54 1 9.78272 6.92597 6.74435 -0.322463 -0.956159 0.342634
55 1 2.77481 2.62485 2.64427 -1.06458 0.149713 -0.422505
56 1 2.82641 2.67151 8.06955 0.42761 -1.24284 0.229235
57 1 2.5918 8.33046 2.47173 -0.584138 -0.320727 -0.114208
58 1 2.86731 8.04137 8.16725 -2.37742 -0.499017 -1.2525
59 1 8.36031 2.65067 2.51124 -0.74804 -0.2679 1.13197
60 1 8.30211 2.57341 8.22819 -0.270413 -0.211571 -1.11747
61 1 3.96329 1.16064 1.18984 -0.301099 0.0345218 0.0737191
62 1 4.15731 0.989895 6.81488 0.754028 1.30412 -0.342694
63 1 8.14672 8.42356 2.7608 0.0933902 -0.776659 -0.941973
64 1 8.24496 8.27133 7.99021 0.373447 -1.28955 1.21714
