ITEM: TIMESTEP
320
ITEM: NUMBER OF ATOMS
64
ITEM: BOX BOUNDS xy xz yz pp pp pp
-2.1577784230499999e-01 1.1187578062354000e+01 -2.1577784230499999e-01
-5.8671844649000000e-02 1.1223192087773000e+01 5.3801181254999997e-02
0.0000000000000000e+00 1.0992593606461000e+01 -5.8671844649000000e-02
ITEM: ATOMS id type x y z fx fy fz
1 1 1.22716 4.13292 1.37794 0.895073 -1.50962 -0.0427052
2 1 1.4817 9.51161 7.03899 -1.75369 0.593917 -3.20678
3 1 6.88012 3.96242 1.34239 -0.529249 -0.385311 -0.727577
4 1 6.85437 4.00354 6.70334 1.26316 -0.534848 -0.491346
5 1 6.79816 9.79578 1.31599 -0.264949 -0.164327 -1.25119
6 1 6.82344 9.50228 6.68447 -0.501244 0.403746 -0.224975
7 1 11.0602 10.946 2.64664 -0.488992 -0.847748 -1.13553
8 1 11.0232 11.0879 8.02688 0.00526752 -0.0511388 0.347096
9 1 10.8492 5.3562 2.78749 1.23997 1.34903 -0.859988
10 1 11.1276 5.22236 7.93386 -0.694222 1.45483 1.41715
11 1 5.3245 11.0942 2.69628 -0.154923 -0.36479 -0.490998
12 1 5.3854 10.9735 8.12085 0.712723 0.674884 -1.189
13 1 5.39037 5.45379 2.55133 0.26227 -0.324592 -0.0673727
14 1 1.43816 3.93714 6.69498 -0.967348 0.290266 -1.34521
15 1 1.14963 9.54781 0.96899 -0.565437 0.611119 1.54385
16 1 5.65275 5.41312 7.93596 -2.25286 -0.401199 2.52247
17 1 1.42995 6.7939 3.96495 -1.84169 0.264843 -0.876404
18 1 1.12066 6.70435 9.58046 -0.0342427 -0.301905 -0.960908
19 1 6.97298 1.24186 4.0967 0.456215 -1.46932 -1.34378
20 1 6.88433 1.27967 9.5018 0.683884 -0.891114 0.56131
21 1 6.75909 6.73274 3.97946 0.614014 0.599395 -0.0834735
22 1 6.9242 6.60921 9.54595 -0.385657 1.42492 -0.683683
23 1 11.1621 2.67883 10.7798 0.242587 -0.807538 1.00966
24 1 11.1921 2.59305 5.21249 -1.7443 -0.236318 1.62269
25 1 10.7993 8.21539 10.7219 0.285144 -1.0875 1.15572
26 1 11.1558 8.13323 5.40295 -0.742597 1.61179 -0.0279791
27 1 5.36413 2.62809 10.8897 0.638656 -0.694035 0.314323
28 1 5.65327 2.61678 5.24616 -1.31098 0.675826 1.09405
29 1 1.39841 1.14819 3.96582 0.0963155 -0.155156 0.691222
30 1 1.50643 1.33866 9.4328 -1.02436 -0.965673 0.144197
31 1 5.60592 8.25335 10.7899 -0.407443 0.139688 0.27132
32 1 5.31404 8.11614 5.20094 -0.177417 0.836204 1.48778
33 1 4.17076 3.93225 3.94176 -0.239964 0.655488 0.203445
34 1 4.07344 9.63613 9.44262 -0.303356 -1.46018 0.509291
35 1 9.48527 3.95244 4.04747 1.50998 -0.448464 -0.150411
36 1 9.75735 3.96479 9.40422 -1.21862 -0.24587 0.0870986
37 1 9.55478 9.54546 3.88654 1.41648 0.0564936 2.11656
38 1 9.60478 9.67077 9.32022 -0.614496 -0.226684 0.274576
39 1 2.52498 10.946 10.7178 0.274895 0.314605 -0.117585
40 1 2.61562 11.0985 5.4119 -0.121743 -1.26901 0.373876
41 1 2.5964 5.46863 10.8719 0.906465 -0.490724 0.821977
42 1 2.63938 5.32031 5.22937 1.84785 0.268465 1.42437
43 1 8.32042 11.05 10.8051 -1.52613 0.0902255 -0.364117
44 1 8.24104 11.0756 5.36402 -0.747529 -1.64274 -0.402354
45 1 8.23364 5.26323 10.8728 0.899892 -0.419318 0.094731
46 1 4.07864 4.10232 9.4821 0.652869 0.158369 -0.703657
47 1 3.82208 9.62342 3.88675 1.30862 0.236719 0.911259
48 1 8.30126 5.43816 5.40528 -0.721761 0.172013 -0.107835
49 1 4.11917 6.97544 1.13728 -0.81342 -0.597417 0.230612
50 1 4.05386 6.68675 6.82912 -0.348392 0.415498 -1.76383
51 1 9.97637 1.04355 1.19464 -1.14426 1.86872 0.353877
52 1 9.66788 1.22293 6.73695 1.90368 0.451639 -0.429033
53 1 9.46774 6.74543 1.30199 0.154406 1.50583 -0.139829
54 1 9.70638 6.80283 6.84273 0.195667 -0.55062 -1.33528
55 1 2.76596 2.53752 2.7261 -0.90483 0.716567 -2.37534
56 1 2.72328 2.69808 8.04287 2.057 -0.794889 0.228813
57 1 2.55871 8.33815 2.40286 0.284593 -1.30866 0.523686
58 1 2.62637 7.9479 8.29198 1.31759 1.19005 -0.342855
59 1 8.37156 2.42807 2.57553 0.0460998 0.409139 -0.354805
60 1 8.24036 2.56267 8.03149 0.413101 0.626694 0.718747
61 1 3.9817 0.990469 1.21667 1.29787 2.17115 0.307987
62 1 4.2706 1.28111 6.68222 -0.370665 -0.337514 0.658642
63 1 8.01421 8.35526 2.63685 1.06343 -2.07232 -0.358957
64 1 8.22007 8.08523 8.11402 -0.029015 0.818398 -0.0676053
