ITEM: TIMESTEP
390
ITEM: NUMBER OF ATOMS
64
ITEM: BOX BOUNDS xy xz yz pp pp pp
-2.1577784230499999e-01 1.1187578062354000e+01 -2.1577784230499999e-01
-5.8671844649000000e-02 1.1223192087773000e+01 5.3801181254999997e-02
0.0000000000000000e+00 1.0992593606461000e+01 -5.8671844649000000e-02
ITEM: ATOMS id type x y z fx fy fz
1 1 1.42852 3.9728 1.14078 -0.541802 -0.146016 1.41852
2 1 1.15592 9.5896 6.66608 0.0614915 0.41375 -0.342368
3 1 6.86963 3.96016 1.17084 0.938389 0.717513 0.331594
4 1 6.91649 4.01879 6.76307 -0.141248 -0.319698 -1.11064
5 1 6.76707 9.6323 1.17264 0.517763 -0.137681 0.556968
6 1 6.80366 9.55076 6.69626 0.0318648 0.566195 -0.00252819
7 1 10.917 11.0024 2.59971 1.72386 -0.37345 -0.975303
8 1 10.9635 10.9816 8.00843 -0.797443 0.398927 0.508617
9 1 11.0481 5.23631 2.68425 0.625742 0.610395 -0.493976
10 1 10.9985 5.3898 7.97748 0.727191 1.30206 1.06966
11 1 5.42247 10.9358 2.68991 0.00252658 0.656397 -0.276025
12 1 5.37998 11.0431 7.95509 0.342979 0.163647 0.347717
13 1 5.48162 5.4619 2.52821 -0.0815866 -0.835499 0.160855
14 1 1.29349 3.95525 6.78756 0.068884 -0.473864 -0.262423
15 1 1.46221 9.52118 1.25684 -2.10303 0.738406 1.06531
16 1 5.45364 5.37104 7.90476 -0.499891 0.489123 2.21662
17 1 1.19391 6.7498 4.16452 0.0799659 0.289157 -1.80535
18 1 1.28271 6.87457 9.48916 -0.169625 -1.31117 -0.363489
19 1 6.96979 1.34897 3.92244 -0.489387 -1.52284 0.941895
20 1 6.86223 1.25832 9.46848 1.75678 -1.99333 0.266915
21 1 6.74092 6.77562 3.99137 1.58192 -0.0369065 -0.415267
22 1 6.86797 6.71039 9.48814 -0.0620815 0.0653001 -0.30954
23 1 11.1427 2.6256 10.7934 0.109045 -0.869536 0.00216283
24 1 11.0219 2.59823 5.31859 0.105252 -0.239316 0.735332
25 1 10.9817 8.12011 10.9837 1.14605 0.157608 -0.457108
26 1 10.8834 8.24016 5.29318 0.289062 0.0193861 0.309378
27 1 5.53983 2.60305 10.7959 0.257472 -0.63544 0.991146
28 1 5.38052 2.60131 5.41751 0.636666 0.443683 -0.725876
29 1 1.38664 1.41825 3.86966 -0.360527 -1.87213 0.708174
30 1 1.34711 1.11652 9.49974 0.63894 -0.175426 0.262751
31 1 5.48564 8.16523 10.8531 -0.144957 0.3549 -1.02268
32 1 5.44293 8.13646 5.33028 -0.603296 0.463936 0.958389
33 1 4.0107 4.12773 3.95532 1.31692 -0.0249709 1.02529
34 1 4.17639 9.7037 9.39877 -1.58043 -1.18446 0.791389
35 1 9.5617 3.90378 4.00103 0.888731 0.653883 -0.247846
36 1 9.80345 3.97219 9.37072 -1.2038 -0.149741 0.633417
37 1 9.50939 9.5904 3.89608 0.0789633 0.393039 0.396969
38 1 9.70406 9.51187 9.47159 -0.517502 0.327952 0.240954
39 1 2.70714 11.0335 10.9262 -0.00415482 -0.322134 -0.867446
40 1 2.47176 11.0745 5.33089 -0.325098 -0.360738 -0.941974
41 1 2.74067 5.27841 10.7647 0.220592 1.75995 0.00727579
42 1 2.56524 5.37356 5.4126 0.852266 0.241018 0.26205
43 1 8.26359 10.921 10.7873 -1.92566 0.845298 -1.22611
44 1 8.17827 11.0455 5.34969 -1.00146 -0.433203 -1.0789
45 1 8.42155 5.35799 10.8311 -1.31565 -0.916083 -0.793851
46 1 4.18569 3.89663 9.51214 -0.374808 1.16079 -1.48862
47 1 4.02068 9.60652 4.14053 0.00963276 0.24753 -0.845181
48 1 8.33768 5.43814 5.34679 -1.08755 0.18709 0.209258
49 1 4.10388 6.83534 1.15866 -0.807434 -0.568376 0.486961
50 1 3.9104 6.89287 6.7897 1.11427 -1.13402 -0.859712
51 1 9.82239 1.06734 1.02982 -0.212402 1.30906 1.71858
52 1 9.56846 1.19533 6.74976 1.76042 0.000991316 0.229407
53 1 9.67722 6.59425 1.26179 -0.0542381 1.72705 0.910963
54 1 9.5883 6.98168 6.81767 -0.113544 -1.49588 -0.899213
55 1 2.9364 2.65278 2.62377 -1.41674 -0.273812 -1.21699
56 1 2.69978 2.54314 8.24582 0.263894 -0.0272647 -1.33045
57 1 2.77829 8.10748 2.76246 -1.07106 0.0685248 -0.554641
58 1 2.58345 8.29867 8.02981 0.369009 0.453362 1.4203
59 1 8.41291 2.53191 2.47383 -0.658644 -0.0125131 -0.450679
60 1 8.2267 2.5992 8.1121 0.732646 0.314668 0.0466481
61 1 4.30239 1.19522 1.31548 -0.48067 -0.0673755 -0.231879
62 1 3.98469 1.08058 6.74576 0.978269 1.45856 0.372046
63 1 8.18664 8.17845 2.52189 -0.164847 -0.680277 0.150356
64 1 8.1611 8.25844 8.17658 0.0830958 -0.406015 -0.157807
