ITEM: TIMESTEP
460
ITEM: NUMBER OF ATOMS
64
ITEM: BOX BOUNDS xy xz yz pp pp pp
-2.1577784230499999e-01 1.1187578062354000e+01 -2.1577784230499999e-01
-5.8671844649000000e-02 1.1223192087773000e+01 5.3801181254999997e-02
0.0000000000000000e+00 1.0992593606461000e+01 -5.8671844649000000e-02
ITEM: ATOMS id type x y z fx fy fz
1 1 1.29296 3.96688 1.05106 0.00223897 -0.509845 1.93248
2 1 1.23616 9.40665 6.6295 0.464901 1.59618 0.019411
3 1 6.82427 4.12969 1.11598 1.10626 0.440041 1.27386
4 1 6.96147 3.88347 6.70076 1.04531 -0.704001 -0.473615
5 1 6.65798 9.55288 1.13586 0.760331 0.0911933 1.36985
6 1 6.88701 9.56868 6.72004 -0.354538 0.449134 0.0579709
7 1 10.6995 11.072 2.68532 2.75652 0.402295 -1.03455
8 1 10.9803 10.9875 7.85044 -0.74527 -0.582254 1.21531
9 1 11.1374 5.45641 2.42553 -0.858504 -0.864231 1.98184
10 1 11.0776 5.38898 8.07915 1.33469 0.629661 -0.119345
11 1 5.38443 11.0527 2.70145 0.145179 -0.152402 -1.18312
12 1 5.40858 10.8587 8.05816 0.496122 0.748772 0.710515
13 1 5.46627 5.48413 2.5588 -0.517855 -0.844901 0.785624
14 1 1.50464 3.94906 6.76325 -0.882576 -0.232596 0.310253
15 1 1.31083 9.78324 1.32159 -2.07465 -0.352938 0.846708
16 1 5.65232 5.22884 7.80107 -2.39342 1.66399 2.68161
17 1 1.2263 6.81855 4.03882 0.189696 -0.237398 -1.42079
18 1 1.45626 6.79947 9.49266 -0.987861 -0.0332554 -0.592968
19 1 6.90965 1.38008 4.02109 0.139356 -1.48795 -0.0806659
20 1 6.84336 1.17674 9.545 1.62077 -1.16424 -0.578557
21 1 6.91007 6.79013 3.97996 0.594497 -0.294131 -0.291386
22 1 6.7335 6.70015 9.41112 0.675828 0.265034 0.185959
23 1 10.9315 2.63907 10.9318 0.0686443 -1.38856 -1.20616
24 1 11.0821 2.67244 5.34163 0.373079 -0.22571 0.560252
25 1 11.1337 8.23659 10.9658 -0.682864 -0.184785 -1.19803
26 1 10.9144 8.19649 5.23155 0.281419 -0.171044 1.04231
27 1 5.66498 2.63509 10.8871 -1.2388 -0.831429 -0.581886
28 1 5.4299 2.3912 5.5589 0.0494528 1.02378 -1.01794
29 1 1.35997 1.38463 3.92066 0.208968 -1.66624 0.354128
30 1 1.13439 1.14107 9.43675 1.21711 0.344931 0.922139
31 1 5.29199 8.06131 10.8379 0.481812 0.0112436 -0.0123795
32 1 5.63116 8.1712 5.32343 -1.48585 0.274332 0.0081306
33 1 4.13256 3.91389 4.06223 0.607222 1.0047 -0.56349
34 1 4.11401 9.65985 9.54199 -1.68415 -1.57974 -0.689458
35 1 9.70503 4.05105 4.03348 0.535726 0.743292 -1.51238
36 1 9.7117 4.12899 9.44578 -0.78404 -1.42574 0.313944
37 1 9.53524 9.64845 4.04595 -0.531579 -0.0241307 -0.191478
38 1 9.62538 9.66135 9.47502 0.440486 -1.00871 -0.0132279
39 1 2.5118 11.0258 10.8301 0.685837 0.479167 -0.555794
40 1 2.60597 10.9836 5.28521 -1.25966 0.0902169 -0.53427
41 1 2.63574 5.11922 10.7193 1.7537 2.04955 -0.426488
42 1 2.67282 5.42555 5.27641 0.621406 -0.194986 0.547526
43 1 8.18395 10.9105 10.8608 -1.78832 0.1008 -1.16511
44 1 8.13516 11.0952 5.38022 -0.543699 -0.376766 -0.802424
45 1 8.33586 5.49313 10.8311 -1.34433 -0.784562 -1.12368
46 1 4.27388 3.87133 9.40342 -0.53835 0.428989 -0.252418
47 1 4.08893 9.56125 4.01711 -0.116082 0.0119536 -0.239205
48 1 8.39238 5.44706 5.45892 -0.479864 -0.0159565 -0.602882
49 1 3.85971 6.70479 1.22107 0.402646 0.213317 -0.0812088
50 1 4.1273 6.82843 6.66319 0.966112 -1.39885 -0.751635
51 1 9.53458 1.07116 1.19501 0.5824 2.57874 1.54158
52 1 9.66741 1.20033 6.69452 0.806725 0.588768 0.482462
53 1 9.59627 6.72592 1.2127 0.927542 2.20172 0.580336
54 1 9.71402 6.94082 6.88228 -0.826041 -0.785777 -0.710325
55 1 2.83378 2.70964 2.5175 -0.670005 -0.820032 -0.150339
56 1 2.7896 2.36742 8.25919 -0.452476 1.08857 -1.11487
57 1 2.5728 8.26029 2.60305 0.713974 -0.358718 0.431628
58 1 2.81947 8.17319 7.93286 -0.895079 0.643436 2.1885
59 1 8.21814 2.75971 2.57094 0.528094 -0.834693 -0.117911
60 1 8.28101 2.50345 8.21261 0.627348 0.820119 -0.525149
61 1 4.24574 1.2027 1.15949 -0.884931 0.226373 1.01581
62 1 4.06565 0.902459 6.8967 0.482432 1.19551 -0.92277
63 1 8.25868 8.26992 2.59134 -0.827952 -0.610637 -0.513132
64 1 8.1131 8.23294 8.18981 1.15492 -0.258578 -0.00909036
