ITEM: TIMESTEP
490
ITEM: NUMBER OF ATOMS
64
ITEM: BOX BOUNDS xy xz yz pp pp pp
-2.1577784230499999e-01 1.1187578062354000e+01 -2.1577784230499999e-01
-5.8671844649000000e-02 1.1223192087773000e+01 5.3801181254999997e-02
0.0000000000000000e+00 1.0992593606461000e+01 -5.8671844649000000e-02
ITEM: ATOMS id type x y z fx fy fz
1 1 1.38163 4.04777 1.14574 0.360737 -1.38673 1.09431
2 1 1.19176 9.84644 6.75415 -1.07366 -1.75184 -0.352224
3 1 6.84649 3.95181 1.24497 1.01189 0.292563 -1.31468
4 1 6.76764 4.13858 6.78364 1.29439 -1.77509 0.0382996
5 1 6.80439 9.55684 1.26996 -0.261305 0.737484 -0.100244
6 1 6.81404 9.55357 6.80597 -0.879356 0.921202 -1.22657
7 1 10.9955 11.1319 2.56429 -0.238028 -0.701802 -1.08065
8 1 10.8437 11.0245 8.33041 -0.0427697 -0.889413 -1.65524
9 1 11.1008 5.32743 2.55468 -0.324492 0.490594 0.615011
10 1 11.0043 5.55212 8.06914 0.186633 -1.12602 0.346626
11 1 5.36265 10.9596 2.59428 -0.418009 -0.758942 -0.37634
12 1 5.29946 10.956 8.08677 0.132706 1.32021 -1.16076
13 1 5.57143 5.35645 2.54332 -0.689061 0.258225 0.721537
14 1 1.16111 3.97047 6.8163 1.02153 0.608102 -0.746395
15 1 1.3316 9.50622 1.35022 -0.567195 0.51835 -0.0862033
16 1 5.43425 5.4446 8.21747 -0.514338 -0.780273 0.169922
17 1 1.34322 6.72965 4.05055 -1.3713 0.5218 -0.135746
18 1 1.32103 6.81903 9.48839 0.0616148 -0.269165 -0.848608
19 1 6.81501 1.0948 3.85826 1.8849 1.12546 1.83044
20 1 7.03654 1.13123 9.356 -0.618174 -0.869422 1.40746
21 1 6.92903 6.76089 3.96342 -1.34797 0.218868 0.388439
22 1 6.95706 6.87509 9.44637 -0.267604 -1.28072 0.638841
23 1 11.1752 2.47918 10.7517 -0.219325 1.82469 -0.042093
24 1 11.1213 2.66116 5.28053 -1.18424 -0.594012 0.921321
25 1 11.1894 8.17428 10.8011 -1.70284 0.229979 1.44976
26 1 10.9382 8.28398 5.32356 0.451599 0.817243 -0.976596
27 1 5.62601 2.44773 10.8059 -1.0114 0.937882 -0.713132
28 1 5.58288 2.69938 5.20574 -1.15723 0.00776639 0.513845
29 1 1.30987 1.22214 4.01032 0.488172 0.0881421 -0.149894
30 1 1.48168 0.991581 9.5415 0.274316 0.705007 0.486705
31 1 5.54105 8.25105 10.8135 -0.718587 -0.732282 -0.0309577
32 1 5.44604 8.20438 5.35132 -0.552777 -0.484255 0.292171
33 1 3.99757 4.17566 3.92009 1.54181 -1.59554 0.450528
34 1 3.99567 9.61779 9.47929 -0.784344 -1.77447 -0.957671
35 1 9.6495 4.01118 3.9999 0.0778506 -0.562706 -0.861473
36 1 9.69143 4.05389 9.3923 0.603849 -1.35828 0.633937
37 1 9.53617 9.76096 3.73713 -0.17764 -1.80103 2.0908
38 1 9.46932 9.44966 9.64862 1.6207 0.828344 -1.09861
39 1 2.74823 10.8641 11.0289 -0.826548 0.70363 -0.947487
40 1 2.51625 10.986 5.19668 0.13611 1.38498 1.52262
41 1 2.75883 5.50747 10.8291 0.49205 -1.29901 0.0451083
42 1 2.6466 5.33796 5.38358 -0.0127243 0.205739 1.12349
43 1 8.22429 10.9806 10.9206 -1.08149 -0.0716466 -0.537713
44 1 8.12123 10.9993 5.35821 -0.138129 0.156915 -0.71013
45 1 8.4185 5.35261 10.8511 -1.49483 0.329938 0.1392
46 1 3.92827 3.79126 9.42611 2.3482 1.4735 1.04417
47 1 3.94209 9.68991 4.03012 0.951984 -2.00608 -0.664162
48 1 8.16586 5.30432 5.2423 1.40338 1.22206 1.79298
49 1 4.24408 6.77819 1.3173 -1.00826 0.745268 -1.50107
50 1 3.99802 6.74479 6.85004 0.720595 0.543826 -1.56603
51 1 9.74204 1.27062 1.15622 -0.174321 0.0397272 1.00034
52 1 9.75594 1.16751 6.73383 -0.0161898 0.248198 -0.160741
53 1 9.69991 6.80056 1.28404 0.427466 -0.0207769 -0.717518
54 1 9.66391 6.80168 6.64028 -1.33813 0.0380006 -0.369164
55 1 2.76475 2.55054 2.75645 -0.3286 1.20915 -2.62509
56 1 2.60474 2.53215 8.01505 0.439159 -0.674748 -0.100798
57 1 2.70441 8.01549 2.66659 0.456101 1.37457 0.0571332
58 1 2.46988 8.19032 7.89756 1.90678 1.56441 2.28998
59 1 8.22193 2.59364 2.60249 1.02804 -0.40182 -0.289351
60 1 8.31313 2.5364 8.08287 -0.364123 1.86647 -1.24147
61 1 4.26543 1.18613 1.29014 -0.839286 0.178145 0.038141
62 1 4.16852 1.30598 6.54638 -0.0142255 -1.40919 1.23063
63 1 8.13122 8.07237 2.5364 1.46236 1.46559 0.145648
64 1 8.21059 8.23449 7.99242 0.973585 -0.826741 0.825413
