ITEM: TIMESTEP
520
ITEM: NUMBER OF ATOMS
64
ITEM: BOX BOUNDS xy xz yz pp pp pp
-2.1577784230499999e-01 1.1187578062354000e+01 -2.1577784230499999e-01
-5.8671844649000000e-02 1.1223192087773000e+01 5.3801181254999997e-02
0.0000000000000000e+00 1.0992593606461000e+01 -5.8671844649000000e-02
ITEM: ATOMS id type x y z fx fy fz
1 1 1.22557 4.15025 1.46427 1.21203 -1.12682 -1.99292
2 1 1.30655 9.50231 6.80129 -0.910189 0.0668278 0.319773
3 1 6.94093 3.85667 1.34235 -1.13411 0.413791 -1.3089
4 1 6.83087 4.09149 6.66026 0.888723 -1.01484 1.29543
5 1 6.86031 9.67956 1.28173 -0.534446 0.504781 -0.600622
6 1 6.76368 9.62658 6.65899 -0.0120977 -0.29184 0.428005
7 1 11.0303 10.8426 2.66428 -0.860729 0.786622 -1.45726
8 1 11.0305 11.1054 8.00583 -0.0696905 -0.730653 0.554364
9 1 10.9489 5.38411 2.82824 0.32258 1.09758 -1.61456
10 1 10.9853 5.27331 8.01107 -0.404093 -0.337824 0.664104
11 1 5.41653 11.1481 2.71498 -1.44573 -1.72966 -1.20602
12 1 5.45815 11.1117 8.09521 -0.839056 -0.0127088 -1.88447
13 1 5.39182 5.38843 2.52656 0.725925 0.676172 0.233554
14 1 1.30078 3.82582 6.69851 1.02916 2.62198 -1.28321
15 1 1.09599 9.5423 1.07188 0.764566 0.26528 0.0134906
16 1 5.47306 5.56295 8.07978 0.588345 -1.60059 0.0429806
17 1 1.35035 6.85395 3.86568 -0.696229 -0.216908 1.28988
18 1 1.10585 6.67084 9.52033 0.699245 -0.238859 -0.330215
19 1 7.00845 1.16301 4.0137 0.719487 0.59814 0.303721
20 1 6.92614 1.24764 9.37019 -0.10391 -0.128753 1.77146
21 1 6.81584 6.8907 3.97026 -1.49848 -0.436863 -0.357414
22 1 6.88014 6.6399 9.5115 0.809656 1.31597 -0.106818
23 1 11.3083 2.58332 10.87 -0.937545 0.67239 0.110371
24 1 11.0481 2.44702 5.33477 -0.0257206 0.322371 -0.714325
25 1 10.8165 8.07519 10.7396 0.475596 0.288894 0.926932
26 1 11.0834 8.0594 5.43811 0.43004 1.50076 -1.08523
27 1 5.41229 2.50873 10.8392 1.28001 0.559755 0.325624
28 1 5.56045 2.55722 5.38772 0.232348 0.933127 -1.36829
29 1 1.43397 1.07551 3.8614 0.112072 0.266675 1.99654
30 1 1.47024 1.36903 9.37099 0.977938 -0.686599 0.00667173
31 1 5.60737 8.19249 10.7633 -0.935955 0.386758 1.03682
32 1 5.26338 8.19775 5.39969 1.15253 -0.0225098 -0.0273911
33 1 4.11574 3.94723 3.93288 0.365948 0.0154077 0.273024
34 1 4.21932 9.71598 9.41243 -1.57978 -1.9046 0.305166
35 1 9.58662 3.96907 3.93922 0.235141 -1.1504 1.30691
36 1 9.62885 3.75976 9.52851 1.56227 1.35202 -0.598996
37 1 9.65884 9.56283 4.08928 0.105464 -0.99668 -0.727342
38 1 9.66982 9.6324 9.35493 -0.971305 -0.0503309 0.281455
39 1 2.61571 10.9656 10.6542 -0.673406 0.110536 0.95371
40 1 2.56339 10.8812 5.47338 0.505138 2.79695 -0.356162
41 1 2.69827 5.4339 10.8736 -0.962794 -0.300184 0.467168
42 1 2.78896 5.48769 5.23553 -1.43128 -1.68596 1.43678
43 1 8.19084 11.0681 10.697 0.667292 -0.386419 1.10596
44 1 8.23945 10.9125 5.28305 -0.90425 0.687824 0.883992
45 1 8.26668 5.18244 10.7708 0.0052865 0.655993 1.52246
46 1 4.17607 4.14602 9.50033 0.662675 0.163964 1.1979
47 1 3.94311 9.65621 4.12764 0.634041 -0.375499 -2.08318
48 1 8.12708 5.41303 5.2021 1.42023 0.573929 1.47428
49 1 3.97519 6.92111 1.1549 1.17142 0.0159499 0.283709
50 1 4.00828 6.79211 6.88096 -0.647663 0.8051 -1.24518
51 1 9.9576 1.19861 1.16909 -0.955238 -1.47934 0.311241
52 1 9.63273 1.10906 6.82006 0.874623 0.134045 -1.42041
53 1 9.51705 6.74384 1.30559 0.0615101 -0.343125 -0.558946
54 1 9.68034 6.83147 6.68285 -2.17483 -1.765 0.258122
55 1 2.76046 2.55774 2.52985 -0.692116 0.599364 0.762405
56 1 2.95836 2.96034 8.13456 -2.25321 -2.91555 -0.907363
57 1 2.58612 8.27162 2.50932 0.644191 0.738371 0.284525
58 1 2.56287 8.12569 8.28805 1.27115 0.794026 -0.367036
59 1 8.44539 2.44768 2.49799 -0.56945 0.297089 0.79763
60 1 8.29435 2.52814 8.10424 -0.809965 1.65818 -1.58026
61 1 4.00717 1.1152 1.21516 1.42189 -0.0723478 -0.0777212
62 1 4.15713 1.41251 6.75127 -0.416681 -2.67442 0.365721
63 1 8.17012 8.24283 2.61891 0.630071 0.137911 0.1346
64 1 8.14089 8.19813 8.09237 0.791345 -0.139247 -0.466241
