ITEM: TIMESTEP
790
ITEM: NUMBER OF ATOMS
64
ITEM: BOX BOUNDS xy xz yz pp pp pp
-2.1577784230499999e-01 1.1187578062354000e+01 -2.1577784230499999e-01
-5.8671844649000000e-02 1.1223192087773000e+01 5.3801181254999997e-02
0.0000000000000000e+00 1.0992593606461000e+01 -5.8671844649000000e-02
ITEM: ATOMS id type x y z fx fy fz
1 1 1.32484 4.25544 1.32061 0.703975 -1.10258 -0.177343
2 1 1.15537 9.63652 6.62959 -0.362944 -0.0370741 0.375667
3 1 7.0268 3.92873 1.06004 -1.71285 -0.0804979 0.879516
4 1 7.08629 4.13037 6.74853 -1.80127 -1.60379 -0.30403
5 1 6.76132 9.61283 1.27438 0.0243793 0.305207 0.191697
6 1 6.77467 9.67091 6.59421 1.32534 -1.49289 1.16769
7 1 10.8502 11.053 2.46144 0.097437 1.11804 1.65596
8 1 10.9086 10.9378 8.11028 0.102961 -0.159633 0.890783
9 1 10.99 5.48579 2.66586 0.240151 0.065012 -0.567804
10 1 10.9586 5.31677 7.96419 1.00551 0.890434 1.29703
11 1 5.28552 10.9754 2.66035 0.829533 0.345093 0.624266
12 1 5.4457 11.0304 7.88274 -1.09655 -0.552238 0.937144
13 1 5.62739 5.29532 2.49695 -0.489135 0.557187 0.550738
14 1 1.3158 3.84368 6.79125 0.107866 1.14244 -0.890976
15 1 1.22551 9.69807 1.39178 0.273279 -2.04074 -0.541185
16 1 5.49224 5.27783 8.03736 -0.11605 0.452854 0.277774
17 1 1.25876 6.76291 4.07878 0.704093 0.237765 -0.888278
18 1 1.2628 6.74783 9.51193 -0.166887 0.0218896 -0.586487
19 1 6.94025 1.28765 4.0658 -0.567685 -0.814658 -1.34614
20 1 6.8815 1.06539 9.35469 0.00949664 0.500758 2.02229
21 1 6.8045 6.86812 4.00115 0.80764 -0.76938 -0.353673
22 1 6.80645 6.57802 9.48658 0.784986 1.64521 -0.494207
23 1 11.3718 2.75512 10.9047 -1.48573 -1.72916 -0.909755
24 1 10.8936 2.57263 5.45312 0.900496 -0.14639 -0.863548
25 1 10.9605 8.21239 10.9451 1.58453 0.882369 -1.37599
26 1 10.9909 8.31137 5.07364 0.237433 0.482169 1.81861
27 1 5.49217 2.47609 10.847 0.363613 -0.24233 -0.342542
28 1 5.56336 2.69238 5.35319 -0.137717 0.108811 0.296488
29 1 1.31881 1.28388 3.96609 -0.71536 -0.585628 0.398474
30 1 1.49815 1.00696 9.59776 -0.77972 0.809067 -0.252834
31 1 5.488 8.17024 10.8259 0.436934 0.360952 -1.29781
32 1 5.4607 8.16594 5.46836 -0.243355 -0.168572 -1.01454
33 1 4.10287 3.98367 3.93829 0.309645 0.398925 -0.0180458
34 1 4.1193 9.57837 9.25431 -1.05457 0.138618 2.3124
35 1 9.61511 4.08334 3.93071 -0.866503 -1.80789 -0.377181
36 1 9.71824 3.87863 9.52237 -0.138311 0.302209 -1.07882
37 1 9.45987 9.75111 3.98985 1.4044 0.0478536 -0.832144
38 1 9.45238 9.61541 9.58873 0.507572 -0.742581 -0.741961
39 1 2.69092 10.8439 10.9894 0.457082 -0.346417 -2.24002
40 1 2.51093 11.0127 5.38893 0.798534 -0.109034 -1.74098
41 1 2.82499 5.27833 10.7939 -0.273745 1.28919 -0.225444
42 1 2.72344 5.42224 5.37411 -0.303333 -0.98986 0.585731
43 1 8.12872 11.0817 10.9712 -0.330816 -0.582211 -1.65328
44 1 8.14625 11.0766 5.29622 -0.587633 -0.170605 0.191741
45 1 8.31424 5.33978 10.8177 1.0076 0.500055 -0.103121
46 1 4.20445 3.89376 9.4371 -1.032 -0.807853 -0.249897
47 1 4.06471 9.47259 4.08107 -0.871749 1.32095 0.103202
48 1 8.3155 5.45752 5.37934 0.270229 1.22742 -0.962143
49 1 4.25265 6.72646 1.0761 -2.10071 0.613821 2.23814
50 1 4.10116 6.82354 6.81192 -1.04264 -0.359852 0.00190114
51 1 9.79741 1.34059 1.11356 -0.0991071 -0.444981 0.712907
52 1 9.63102 0.977473 6.84025 0.458413 2.20907 -0.127456
53 1 9.71155 6.88448 1.17524 -1.87926 -0.848761 1.53985
54 1 9.79343 7.01794 6.61785 -1.40843 -1.72602 0.487171
55 1 2.65498 2.63042 2.54781 0.49985 0.330954 0.751258
56 1 2.67985 2.43241 8.10741 1.27589 0.185313 0.0979228
57 1 2.74613 8.13417 2.68045 -0.134587 -0.810989 -1.59303
58 1 2.48404 8.30242 8.02564 1.12093 -1.34652 0.431935
59 1 8.18149 2.49545 2.44004 2.12392 1.69972 2.06984
60 1 8.13459 2.52191 8.10225 2.18036 0.317747 0.137581
61 1 4.05986 1.11681 1.32326 0.92404 0.889455 -0.199014
62 1 4.17216 1.12516 6.6434 -0.230622 1.08254 0.337572
63 1 8.29534 8.32883 2.67474 -1.51866 -1.49457 -1.36263
64 1 8.18393 8.08009 8.03512 -0.330203 1.63461 0.329032
