ITEM: TIMESTEP
890
ITEM: NUMBER OF ATOMS
64
ITEM: BOX BOUNDS xy xz yz pp pp pp
-2.1577784230499999e-01 1.1187578062354000e+01 -2.1577784230499999e-01
-5.8671844649000000e-02 1.1223192087773000e+01 5.3801181254999997e-02
0.0000000000000000e+00 1.0992593606461000e+01 -5.8671844649000000e-02
ITEM: ATOMS id type x y z fx fy fz
1 1 1.35662 4.1114 1.21904 -0.437529 -0.119445 -0.119895
2 1 1.16615 9.65148 6.74082 -1.05831 0.707589 -0.0704025
3 1 6.7373 3.90206 1.10291 1.2956 2.2106 0.749766
4 1 6.88296 4.01432 6.96952 -0.159322 -0.810032 -2.458
5 1 6.55781 9.75548 1.18813 1.6792 -0.659466 1.26304
6 1 6.7889 9.55823 6.6597 -0.553723 0.523364 0.501177
7 1 11.0519 11.0154 2.57398 -1.69436 0.845542 -0.433329
8 1 10.8205 11.0117 8.22377 1.0691 -0.409245 -0.78303
9 1 11.0631 5.41127 2.71118 0.394938 0.510151 -1.23589
10 1 11.1141 5.45034 8.19856 -0.501558 0.213239 -1.65382
11 1 5.17377 11.0473 2.85059 1.60292 0.285226 -1.55967
12 1 5.20721 10.9553 8.08951 1.4329 -0.207186 -0.511895
13 1 5.50609 5.61223 2.55042 -0.321965 -2.93266 -0.321068
14 1 1.36744 3.94994 6.84559 -1.33783 -0.167645 -1.15204
15 1 1.27569 9.59921 1.3474 -0.624119 -1.59219 -1.58428
16 1 5.45745 5.37663 8.24655 0.103001 -0.459261 -0.859192
17 1 1.25423 6.82748 4.04506 0.476477 -0.481041 0.208904
18 1 1.31382 6.83358 9.53644 0.372373 0.147968 -1.1156
19 1 7.12841 1.25837 3.87055 -1.44119 -0.743415 1.71932
20 1 6.84642 1.21607 9.46945 0.185055 -1.42757 -0.190535
21 1 6.88718 6.80219 3.92322 0.283034 -0.647874 1.88911
22 1 7.09222 6.66651 9.29733 -1.11967 1.00824 1.75083
23 1 11.2165 2.61078 10.7974 0.0993445 0.197129 -0.233029
24 1 11.0126 2.56404 5.3204 1.32675 0.355205 0.541322
25 1 10.9271 7.95749 10.9323 1.65374 3.29707 0.00369379
26 1 10.9946 8.39861 5.18705 0.288596 -1.4952 1.22007
27 1 5.42692 2.46793 10.804 0.615411 0.352043 0.239948
28 1 5.5387 2.67207 5.27903 0.975435 -0.376996 0.579512
29 1 1.46489 1.22722 3.91029 -1.22281 0.65415 0.452853
30 1 1.47412 1.04979 9.5139 -0.249919 0.216532 0.405546
31 1 5.56487 8.18811 10.6146 0.362633 -0.831081 1.13126
32 1 5.3742 8.11584 5.30436 0.194364 0.250025 0.198375
33 1 4.07486 4.09007 3.99652 0.775557 0.154208 -0.964964
34 1 3.97483 9.40712 9.47906 -0.123896 1.36588 -0.863536
35 1 9.7544 4.08496 4.00197 -1.40879 -1.76831 -0.433843
36 1 9.71135 3.99501 9.40144 0.905232 -1.08753 0.370503
37 1 9.5569 9.51795 3.83956 0.478009 2.13414 0.497981
38 1 9.54629 9.52462 9.52809 -0.0523518 -0.228072 0.443617
39 1 2.76345 10.9224 10.9609 -0.882364 -0.0435535 -0.52551
40 1 2.41255 11.0504 5.3598 1.8336 -0.575211 -0.609877
41 1 2.73313 5.34842 10.7104 0.886028 0.856013 1.6956
42 1 2.65661 5.2946 5.40448 -0.113888 0.782809 -0.0661329
43 1 8.13116 11.0962 10.7784 0.103921 -0.55965 0.92026
44 1 8.28235 10.9471 5.34273 -1.06007 0.728646 -0.505484
45 1 8.45045 5.27357 10.7917 -2.09598 0.0857897 0.820688
46 1 4.11329 3.83207 9.48268 -0.975314 0.459336 -0.779967
47 1 3.81019 9.47985 3.91673 1.31122 1.87722 2.81016
48 1 8.30882 5.27931 5.40667 -0.403473 1.9944 0.143015
49 1 4.15783 6.91906 1.19467 -1.05334 -0.951546 -1.36565
50 1 4.08178 6.63884 6.75414 -0.158637 0.942938 -0.280037
51 1 9.82164 1.34479 1.16854 -0.357573 -1.55615 0.432129
52 1 9.69586 1.21931 6.7949 0.14409 -0.559829 -0.266832
53 1 9.60705 6.71752 1.27876 -1.30282 0.50349 1.44017
54 1 9.74603 6.97402 6.67061 0.235189 -2.46996 -0.402501
55 1 2.73195 2.71731 2.51672 0.227641 -0.208675 0.844904
56 1 2.67132 2.42119 7.98486 0.964832 0.848765 1.48316
57 1 2.71427 8.10416 2.70476 -1.49744 -0.378794 -1.95896
58 1 2.59759 8.24317 7.86743 0.29626 -1.40592 2.03971
59 1 8.31355 2.65438 2.46004 0.802738 0.87868 0.775329
60 1 8.26776 2.51448 8.19306 0.282823 0.682462 -0.741667
61 1 4.1988 1.29122 1.35864 -0.713005 -1.09745 -0.131104
62 1 4.1522 1.20649 6.68208 0.181241 -0.553495 -0.686296
63 1 8.10293 8.27297 2.6722 -0.111127 -0.261657 -3.29856
64 1 8.30771 8.15251 7.96589 -0.806889 0.997254 0.590619
