ITEM: TIMESTEP
900
ITEM: NUMBER OF ATOMS
64
ITEM: BOX BOUNDS xy xz yz pp pp pp
-2.1577784230499999e-01 1.1187578062354000e+01 -2.1577784230499999e-01
-5.8671844649000000e-02 1.1223192087773000e+01 5.3801181254999997e-02
0.0000000000000000e+00 1.0992593606461000e+01 -5.8671844649000000e-02
ITEM: ATOMS id type x y z fx fy fz
1 1 1.34756 4.10501 1.14626 0.318115 -0.148269 0.998135
2 1 1.11739 9.74677 6.92473 -0.0361435 -1.41053 -1.64825
3 1 6.87579 3.84891 1.08815 -0.515509 1.49908 0.653118
4 1 6.85597 3.99358 6.81287 -0.477309 -0.289484 -0.824299
5 1 6.76032 9.76368 1.27119 -0.26648 -1.15433 -1.14929
6 1 6.71697 9.55564 6.76573 0.406385 0.366161 -1.28735
7 1 10.9836 11.1016 2.46994 0.276028 -1.30848 0.656376
8 1 10.9394 11.1639 8.29166 -0.742085 -0.993953 -0.630136
9 1 11.135 5.43048 2.56509 -0.0331791 -0.136257 1.10451
10 1 10.9499 5.41414 8.11612 0.963464 -0.166092 -0.436139
11 1 5.28594 11.0363 2.73232 0.584594 0.194289 -0.615267
12 1 5.29576 11.0357 7.97021 -0.211894 -0.885752 0.684388
13 1 5.50814 5.42099 2.52069 0.575754 -0.395051 -0.222854
14 1 1.24792 3.9397 6.76558 0.763788 1.02928 -0.570745
15 1 1.23887 9.40015 1.25831 -0.211244 1.71138 0.163419
16 1 5.47913 5.23832 8.32169 0.577666 1.28964 -1.69153
17 1 1.35535 6.83862 4.04789 -1.06898 -0.157353 -0.523012
18 1 1.33829 6.79194 9.44711 -1.03515 -1.08145 0.890872
19 1 7.13611 1.1497 3.99113 -1.37666 1.15142 -0.953514
20 1 6.79612 1.27052 9.36942 0.560365 -1.84079 0.63052
21 1 6.81879 6.83976 4.04445 0.028248 -0.324166 -1.07176
22 1 7.12291 6.80937 9.30473 -1.02833 -1.05521 1.01317
23 1 11.2971 2.62048 10.8133 -0.816536 -0.720798 0.276137
24 1 11.0548 2.60966 5.33038 -0.63431 -0.263412 0.577084
25 1 11.0034 8.03452 10.9361 -0.413721 0.695275 -1.13598
26 1 10.9969 8.29622 5.23817 0.514971 0.424787 1.04252
27 1 5.41431 2.48101 10.7277 0.756866 -0.283899 1.89324
28 1 5.56559 2.52168 5.28695 -0.504171 1.35716 -0.262963
29 1 1.3036 1.29185 3.9498 0.142433 -0.826771 0.468595
30 1 1.5832 1.15804 9.55055 -0.596931 -0.147358 0.135061
31 1 5.58278 8.0689 10.6763 0.1859 1.51941 0.969475
32 1 5.33503 8.08065 5.34706 -0.173769 0.770873 0.997152
33 1 4.08915 4.15821 3.94778 0.579203 -2.04216 0.201791
34 1 3.96539 9.37372 9.29224 1.0727 1.76421 1.59418
35 1 9.73864 4.0916 4.0207 -0.562588 -0.307982 -0.565628
36 1 9.79387 3.84037 9.44945 -0.690818 0.689846 0.0938933
37 1 9.59637 9.70521 3.88193 0.164375 -0.431648 0.0768913
38 1 9.52916 9.5205 9.49779 0.861058 1.0776 0.892462
39 1 2.65196 10.8173 10.9239 0.625541 -0.00442857 -0.662549
40 1 2.42002 11.0616 5.40015 0.141133 -0.149111 -0.464839
41 1 2.82738 5.42282 10.8626 -1.45941 -0.727885 -0.952003
42 1 2.68468 5.45917 5.30725 -0.518751 -1.64158 1.43141
43 1 8.17248 11.2139 10.7838 -0.449865 -1.54699 0.339951
44 1 8.16423 10.9468 5.28054 -0.0423243 -0.0796281 1.18243
45 1 8.39481 5.25311 10.8036 -0.221468 0.820187 0.308923
46 1 4.09482 3.88636 9.60018 -0.682901 0.585638 -1.19954
47 1 3.88304 9.65122 4.10007 0.359325 -0.678458 -0.354093
48 1 8.13331 5.34026 5.33233 1.18082 0.750586 0.397008
49 1 4.13176 6.74044 1.09317 0.374826 1.75993 1.9115
50 1 4.02158 6.58208 6.86709 0.92995 0.771486 -0.893052
51 1 9.81841 1.27533 1.2799 -0.506934 0.66317 -1.35924
52 1 9.62119 1.17237 6.78316 0.53587 0.349139 -0.187508
53 1 9.62893 6.73508 1.40435 -0.615783 0.120029 -1.48693
54 1 9.68575 6.84337 6.61137 -0.24246 -1.01053 -0.456481
55 1 2.63386 2.63381 2.61886 1.17717 0.954283 -0.415214
56 1 2.7657 2.58421 8.04168 0.160859 0.0661438 0.218339
57 1 2.65456 8.11427 2.65803 1.33299 0.349185 -1.18408
58 1 2.57881 8.0551 8.02016 -0.196163 1.06536 -0.479876
59 1 8.37909 2.75054 2.50014 -0.00289148 -1.3646 1.22812
60 1 8.15451 2.61877 8.16588 1.84288 -0.193724 -1.14111
61 1 4.13975 1.25258 1.30574 -0.345841 -0.970372 0.0950411
62 1 4.11258 1.16984 6.6175 0.189063 0.524886 0.385103
63 1 8.20796 8.22663 2.61116 -0.47016 0.40667 -0.129385
64 1 8.37701 8.2591 7.84747 -1.0316 0.011396 1.44382
