ITEM: TIMESTEP
930
ITEM: NUMBER OF ATOMS
64
ITEM: BOX BOUNDS xy xz yz pp pp pp
-2.1577784230499999e-01 1.1187578062354000e+01 -2.1577784230499999e-01
-5.8671844649000000e-02 1.1223192087773000e+01 5.3801181254999997e-02
0.0000000000000000e+00 1.0992593606461000e+01 -5.8671844649000000e-02
ITEM: ATOMS id type x y z fx fy fz
1 1 1.33548 3.93444 1.43341 -0.366335 0.616582 -1.40101
2 1 1.29961 9.48561 6.74231 -0.428155 0.367074 0.132174
3 1 7.05137 3.89742 1.31621 -1.70148 1.74378 -0.490082
4 1 6.92608 4.01097 6.58309 -0.836412 -0.767385 0.0025618
5 1 6.90948 9.54224 1.19612 0.0307301 0.233981 0.549037
6 1 6.87069 9.55745 6.71091 -0.755305 0.521489 0.48773
7 1 10.8866 10.987 2.63296 -0.020289 -0.678486 -0.205892
8 1 10.9996 11.0396 7.96671 0.176268 -0.220592 0.393553
9 1 10.9475 5.46385 2.63458 1.44049 0.23206 -0.645386
10 1 10.9891 5.25023 8.05008 -0.300385 1.16264 -0.488731
11 1 5.44154 10.8917 2.4962 0.0236016 0.881402 -0.166276
12 1 5.33072 11.0064 8.0889 1.04866 -0.0367259 0.107841
13 1 5.44487 5.38953 2.65319 0.659719 -1.2021 -1.19583
14 1 1.37967 3.98158 6.70506 -0.72427 0.610681 -1.03415
15 1 1.2529 9.66663 1.15494 -0.642704 -0.509989 0.163069
16 1 5.60672 5.49666 7.94505 -0.638131 -0.74014 0.640191
17 1 1.37707 6.90972 3.93395 -0.80977 -0.946084 0.305395
18 1 1.11114 6.67265 9.44983 1.69036 0.272751 0.257831
19 1 6.79362 1.17354 3.88931 0.782139 -0.190377 0.825784
20 1 7.07317 1.19644 9.49517 -1.61872 -0.738643 0.0555419
21 1 6.70378 6.93141 3.84036 0.954986 -1.0913 1.13377
22 1 6.77611 6.77578 9.53611 0.709462 0.126816 -0.0223065
23 1 11.0951 2.58734 10.9095 -0.0679774 0.00895663 -0.599812
24 1 10.99 2.64258 5.31729 1.23579 -0.355853 0.178454
25 1 10.9413 8.17714 10.7106 1.20535 1.35264 0.559512
26 1 10.949 8.13979 5.36358 1.25255 -0.0941679 0.845895
27 1 5.58919 2.52152 10.9456 0.261825 0.0204148 -0.4848
28 1 5.36891 2.50008 5.28867 1.25281 0.761104 0.67529
29 1 1.34568 1.14221 3.99091 -0.502342 -0.0475061 0.525546
30 1 1.4119 1.23063 9.40071 -0.494361 0.165175 0.701969
31 1 5.46249 8.23372 10.893 0.457727 -1.30323 0.352198
32 1 5.40649 8.2308 5.30162 -0.147618 0.222531 0.640366
33 1 4.03788 3.89835 3.96042 0.780727 -0.10104 -0.731912
34 1 4.14582 9.56272 9.59839 -0.994454 0.572278 -1.2764
35 1 9.64653 4.06191 3.97855 -0.207985 -1.00276 -0.562809
36 1 9.58892 4.00721 9.46264 0.739185 -1.22877 -0.0627027
37 1 9.55347 9.47317 4.13709 0.356518 2.2583 -0.96061
38 1 9.62794 9.75341 9.38623 0.146323 -1.36266 0.288273
39 1 2.6295 11.0159 10.7078 -0.285111 -0.234421 0.584097
40 1 2.55432 10.946 5.35091 0.691692 0.527089 0.0739969
41 1 2.67854 5.40466 10.9192 0.634587 -0.810635 -0.451217
42 1 2.82105 5.35178 5.21845 -1.62084 0.93732 1.3402
43 1 8.20133 10.9177 10.7968 -0.00308444 0.812133 0.149607
44 1 8.12145 11.1188 5.29522 -0.132744 -1.28336 0.254873
45 1 8.32843 5.42562 10.8121 -0.888529 -0.494883 0.858574
46 1 4.37093 4.06613 9.50472 -2.59377 -0.51468 -0.27492
47 1 4.09445 9.6758 3.87038 -0.448318 0.0616227 2.08022
48 1 8.16597 5.42524 5.11585 0.621139 1.54656 2.79448
49 1 4.12016 6.82226 1.30945 -1.04327 0.230549 -0.667186
50 1 4.02104 6.82527 6.75377 0.323405 -0.0769196 -0.437877
51 1 9.64835 1.14275 1.2293 0.975113 -0.0421178 0.0238567
52 1 9.7423 1.16155 6.71886 -0.262518 0.652178 -0.376618
53 1 9.68381 6.91326 1.12221 -0.970999 -0.777654 1.61312
54 1 9.50741 6.91881 6.8448 0.241659 -2.95053 -2.10121
55 1 2.74379 2.38174 2.59367 -0.0515289 1.07088 0.158522
56 1 2.69957 2.70449 8.07611 1.63931 0.298092 1.50058
57 1 2.75085 8.36023 2.64614 -1.27738 -1.19247 -1.41146
58 1 2.67778 8.18014 8.2741 -0.248403 -0.585129 -0.84291
59 1 8.29798 2.45551 2.61812 0.581743 1.07274 0.513128
60 1 8.2478 2.52096 8.0143 0.658857 1.0506 0.111531
61 1 4.12766 1.03767 1.24188 0.604845 0.915317 -0.607314
62 1 4.07601 1.25973 6.84257 0.187471 -1.06085 -0.953278
63 1 8.30017 8.19669 2.73188 -0.700149 0.0364258 -2.29233
64 1 8.21456 8.16124 8.28364 -0.581691 1.29928 -1.13373
